
OPTIMIZATION CYCLE 18
Thu Jun 25 10:48:11 PDT 2020
           Doing BLAS/Lapack in the master proc. with 16 CPUs.
           SMPCPUS    set: Shared-memory Parallelization with  28 CPUs.

           SMP Parallelization Reference:
           C. van Wullen, J. Comput. Chem. 32 (2011) 1195--1201

 rdgrad (c-12-38) : TURBOMOLE V7.2 ( 21454 ) 4 Oct 2017 at 12:48:15
 Copyright (C) 2017 TURBOMOLE GmbH, Karlsruhe


    2020-06-25 10:48:11.456 


 UHF modus switched on !


                                 r d g r a d

                          gradient for ridft program 

                        by K.Eichkorn, O.Treutler, H.Oehm, 
                             M.Haeser and R.Ahlrichs
                  (Chemical Physics Letters 242 (1995) 652-660)
                    parallel version: M.v.Arnim  &  R.Ahlrichs
                            quantum chemistry group
                             university  karlsruhe
                                   germany




                          References             
                                                 
          Density Functional:                              
              O. Treutler and R. Ahlrichs                      
              Efficient Molecular Numerical Integration Schemes
              J. chem. Phys. 102: 346 (1995)                   
          Parallel Version:                                
              Performance of parallel TURBOMOLE for Density    
              Functional Calculations                          
              M. v.Arnim and R. Ahlrichs                      
              J. comp. Chem. 19: 1746 (1998)                   
          RI-J Method:                                     
              Auxiliary Basis Sets to approximate Coulomb      
              Potentials                                       
              Chem. Phys. Lett. 240: 283 (1995)                
              K. Eichkorn, O. Treutler, H. Oehm, M. Haeser     
              and R. Ahlrichs                                  
              Chem. Phys. Lett. 242: 652 (1995)                
                                                           
              Auxiliary Basis Sets for Main Row Atoms and their
              Use to approximate Coulomb Potentials            
              K. Eichkorn, F. Weigend, O. Treutler and         
              R. Ahlrichs                                      
              Theo. Chem. Acc. 97: 119 (1997)                   
                                         



 integral neglect threshold       :  0.47E-11
 integral storage threshold THIZE :  0.10E-04
 integral storage threshold THIME :         5


 DENSITY CONVERGENCE CHECK SWITCHED ON !
 SCF CONVERGENCE IF RMS(delta[D]) <     0.1000000000E-06

 number of unique ecp types :                     2

          ------------------
          -ecp- potential(s)
          ------------------

 center   1  mo def2-ecp  (ecp no.  1)  ncore = 28,  lmax = 3

 center   2  y def2-ecp  (ecp no.  2)  ncore = 28,  lmax = 3

 center   3  y def2-ecp  (ecp no.  3)  ncore = 28,  lmax = 3
  (equal to center   2 y )
 TPSS global hybrid functional
 exchange:    9/10 (LDA+TPSS) + 1/10 HF
 correlation: LDA (PW) + TPSS
 A Hybrid-DFT calculation using the RI-J approximation will be carried out.
  
  
 AUXILIARY BASIS SET information:

 symmetry group of the molecule :   d2d

 the group has the following generators :
   s4(z)
   c2(x)

    8 symmetry operations found

 there are 5 real representations :   a1   a2   b1   b2   e   

 maximum number of shells which are related by symmetry :  8


    mo occupation :
   irrep   mo's   occupied
    a1     105       22
    a2      60        9
    b1      62        9
    b2     103       21
    e      159       30
 
 number of basis functions   :                    648
 number of occupied orbitals :                    121
 

 biggest AO integral is expected to be     9.804440325
  
           ------------------
           density functional
           ------------------
 TPSS global hybrid functional
 exchange:    9/10 (LDA+TPSS) + 1/10 HF
 correlation: LDA (PW) + TPSS

 spherical integration : Lebedev's spherical grid
 spherical gridsize    :                     4
    i.e. gridpoints    :                   434
 value for diffuse not defined
 radial integration    : Chebyshev 2nd kind (scaling 3)
 radial gridsize       :                     6
 integration cells     :                     9
 partition function    : becke
 partition sharpness   :                     3
  
 
 Derivatives of quadrature weights will be included
 
  
           ------------------------
             RDGRAD - INFORMATION
           ------------------------
  
 Threshold for integral neglect (rithr1): 1E-10
 Threshold for integral neglect (rithr2): 1E-10
 Contributions to RI integral batches: 
  neglected integral batches:                 33818
  direct contribution:                         3857
     
 ****************************************
 Memory allocated for RDGRAD: 9 MiB
 ****************************************
                                            
     

 nuclear repulsion energy  :   3420.01103598    

  MOs are in ASCII format !


 reading orbital data $uhfmo_alpha  from file alpha
 orbital characterization : scfconv=7

 reading orbital data $uhfmo_beta  from file beta
 orbital characterization : scfconv=7
  Deviation of MOs from orthonormality   5.728644474008744E-012
  Deviation of MOs from orthonormality   5.577198235162663E-012

    ----------------------------------------
     S+T+V CONTRIBUTIONS TO ENERGY GRADIENT 
    ----------------------------------------
 ==============================================================================
                      COSMO switched on
 ==============================================================================

 1e-integral 1st. derivatives will be neglected if expon. factor < 0.948326E-14

COSMO: already initialized
 COSMO: using fcos:      0.8064516
  _________________________________
 |                                 |
 |         DFTD3 V3.1 Rev 0        |
 | S.Grimme, University Bonn       |
 |            June  2014           |
 |   see standalone version        |
 |       dftd3 -h for options      |
 |_________________________________|
 
 Please cite DFT-D3 work done with this code as:
 S. Grimme, J. Antony, S. Ehrlich and H. Krieg,
 J. Chem. Phys, 132 (2010), 154104.
 If used with BJ-damping cite also
 S. Grimme, S. Ehrlich and L. Goerigk,
 J. Comput. Chem. 32 (2011), 1456-1465
 For DFT-D2 the reference is
 S. Grimme, J. Comput. Chem., 27 (2006), 1787-1799
 
C6 coefficients used:
                     2  C6 for element                      1
Z=  1 CN= 0.912     C6(AA)=    3.03
Z=  1 CN= 0.000     C6(AA)=    7.59
                     5  C6 for element                      6
Z=  6 CN= 0.000     C6(AA)=   49.11
Z=  6 CN= 0.987     C6(AA)=   43.25
Z=  6 CN= 1.998     C6(AA)=   29.36
Z=  6 CN= 2.999     C6(AA)=   25.78
Z=  6 CN= 3.984     C6(AA)=   18.21
                     3  C6 for element                     16
Z= 16 CN= 0.000     C6(AA)=  134.01
Z= 16 CN= 0.995     C6(AA)=  131.00
Z= 16 CN= 1.990     C6(AA)=  125.81
                     3  C6 for element                     39
Z= 39 CN= 0.000     C6(AA)= 2365.89
Z= 39 CN= 1.915     C6(AA)= 1132.30
Z= 39 CN= 2.890     C6(AA)=  451.08
                     3  C6 for element                     42
Z= 42 CN= 0.000     C6(AA)=  845.90
Z= 42 CN= 1.942     C6(AA)=  502.01
Z= 42 CN=11.056     C6(AA)=  337.11

#           XYZ [au]              R0(AA) [Ang.]  CN          C6(AA)     C8(AA)   C10(AA) [au]
  1   0.00000   0.00000   0.00000   mo  1.286  5.576       502.0     57804.9   8153712.7
  2   0.00000   0.00000  -6.32224   y   1.655 11.622       451.1     86005.2  20087594.1
  3   0.00000   0.00000   6.32224   y   1.655 11.622       451.1     86005.2  20087594.1
  4   2.43124   2.43124  -2.42570   s   0.839  2.037       125.9      6166.9    370100.0
  5  -2.43124  -2.43124  -2.42570   s   0.839  2.037       125.9      6166.9    370100.0
  6   2.43124  -2.43124   2.42570   s   0.839  2.037       125.9      6166.9    370100.0
  7  -2.43124   2.43124   2.42570   s   0.839  2.037       125.9      6166.9    370100.0
  8   4.58747  -1.51722  -7.53730   c   0.644  4.101        18.3       528.1     18711.2
  9   3.52729  -3.52729  -6.10878   c   0.644  4.099        18.3       528.2     18712.4
 10   1.51722  -4.58747  -7.53730   c   0.644  4.101        18.3       528.1     18711.2
 11   1.33843  -3.23976  -9.85325   c   0.644  4.100        18.3       528.1     18711.8
 12   3.23976  -1.33843  -9.85325   c   0.644  4.100        18.3       528.1     18711.8
 13  -1.51722   4.58747  -7.53730   c   0.644  4.101        18.3       528.1     18711.2
 14  -3.52729   3.52729  -6.10878   c   0.644  4.099        18.3       528.2     18712.4
 15  -4.58747   1.51722  -7.53730   c   0.644  4.101        18.3       528.1     18711.2
 16  -3.23976   1.33843  -9.85325   c   0.644  4.100        18.3       528.1     18711.8
 17  -1.33843   3.23976  -9.85325   c   0.644  4.100        18.3       528.1     18711.8
 18   1.51722   4.58747   7.53730   c   0.644  4.101        18.3       528.1     18711.2
 19   1.33843   3.23976   9.85325   c   0.644  4.100        18.3       528.1     18711.8
 20   3.23976   1.33843   9.85325   c   0.644  4.100        18.3       528.1     18711.8
 21   4.58747   1.51722   7.53730   c   0.644  4.101        18.3       528.1     18711.2
 22   3.52729   3.52729   6.10878   c   0.644  4.099        18.3       528.2     18712.4
 23  -4.58747  -1.51722   7.53730   c   0.644  4.101        18.3       528.1     18711.2
 24  -3.23976  -1.33843   9.85325   c   0.644  4.100        18.3       528.1     18711.8
 25  -1.33843  -3.23976   9.85325   c   0.644  4.100        18.3       528.1     18711.8
 26  -1.51722  -4.58747   7.53730   c   0.644  4.101        18.3       528.1     18711.2
 27  -3.52729  -3.52729   6.10878   c   0.644  4.099        18.3       528.2     18712.4
 28   0.31740  -6.15629  -6.95098   h   0.417  1.012         3.1        37.3       552.2
 29  -0.00381  -3.60998 -11.37154   h   0.417  1.012         3.1        37.3       552.3
 30   4.10902  -4.10902  -4.22053   h   0.417  1.014         3.1        37.3       552.2
 31   3.60998   0.00381 -11.37154   h   0.417  1.012         3.1        37.3       552.3
 32   6.15629  -0.31740  -6.95098   h   0.417  1.012         3.1        37.3       552.2
 33   0.00381   3.60998 -11.37154   h   0.417  1.012         3.1        37.3       552.3
 34  -0.31740   6.15629  -6.95098   h   0.417  1.012         3.1        37.3       552.2
 35  -4.10902   4.10902  -4.22053   h   0.417  1.014         3.1        37.3       552.2
 36  -6.15629   0.31740  -6.95098   h   0.417  1.012         3.1        37.3       552.2
 37  -3.60998  -0.00381 -11.37154   h   0.417  1.012         3.1        37.3       552.3
 38  -0.31740  -6.15629   6.95098   h   0.417  1.012         3.1        37.3       552.2
 39  -4.10902  -4.10902   4.22053   h   0.417  1.014         3.1        37.3       552.2
 40  -6.15629  -0.31740   6.95098   h   0.417  1.012         3.1        37.3       552.2
 41  -3.60998   0.00381  11.37154   h   0.417  1.012         3.1        37.3       552.3
 42   0.00381  -3.60998  11.37154   h   0.417  1.012         3.1        37.3       552.3
 43  -0.00381   3.60998  11.37154   h   0.417  1.012         3.1        37.3       552.3
 44   0.31740   6.15629   6.95098   h   0.417  1.012         3.1        37.3       552.2
 45   4.10902   4.10902   4.22053   h   0.417  1.014         3.1        37.3       552.2
 46   3.60998  -0.00381  11.37154   h   0.417  1.012         3.1        37.3       552.3
 47   6.15629   0.31740   6.95098   h   0.417  1.012         3.1        37.3       552.2

molecular C6(AA) [au] =     52004.15

           DFT-D V3(BJ)
 DF tpssh                                             
 parameters
 s6       :    1.0000
 s8       :    2.2382
 a1       :    0.4529
 a2       :    4.6550
 k1-k3    :   16.0000    1.3333   -4.0000
 
 Edisp /kcal,au:   -69.2469 -0.11035191

 E6    /kcal :   -27.2885
 E8    /kcal :   -41.9584
 % E8        : 60.59
 
 doing analytical gradient O(N^2) ...
 
 |G|=  4.087848440926327E-002

 setting up bound for integral derivative estimation

 increment for numerical differentiation : 0.00050000

 biggest AO integral is expected to be     9.804440325
 biggest cartesian 1st derivative AO integral is expected to be    25.364389886

 biggest 1-particle AO density matrix element is expected to be    2.1753070048

 setting up bound for integral derivative estimation

 increment for numerical differentiation : 0.00050000

 biggest AO integral is expected to be     9.804440325
 biggest cartesian 1st derivative AO integral is expected to be    25.364389886

 2e-integral 1st. derivatives will be neglected if expon. factor < 0.100000E-06
 outer boundary for 2e-integral derivative neglection is 0.440269E-09

          Overall gridpoints after grid construction =         62533
 Ordering of quadrature gridpoints disabled.

 Integrated ground state density     :   241.0012869584547    

 Integrated ground state spin density:   1.000005486170602    


          ------------------------------------------------
           cartesian gradient of the energy (hartree/bohr)
          ------------------------------------------------

  ATOM      1 mo          2 y           3 y           4 s           5 s 
dE/dx  0.0000000D+00  0.0000000D+00  0.0000000D+00 -0.4820429D-06  0.4820429D-06
dE/dy  0.0000000D+00  0.0000000D+00  0.0000000D+00 -0.4820429D-06  0.4820429D-06
dE/dz  0.0000000D+00 -0.4585267D-05  0.4585267D-05  0.1041023D-06  0.1041023D-06

  ATOM      6 s           7 s           8 c           9 c          10 c 
dE/dx -0.4820429D-06  0.4820429D-06 -0.3931622D-06  0.8074684D-06  0.4350592D-06
dE/dy  0.4820429D-06 -0.4820429D-06 -0.4350592D-06 -0.8074684D-06  0.3931622D-06
dE/dz -0.1041023D-06 -0.1041023D-06 -0.7534254D-06  0.1740303D-06 -0.7534254D-06

  ATOM     11 c          12 c          13 c          14 c          15 c 
dE/dx  0.3047674D-07 -0.4649772D-06 -0.4350592D-06 -0.8074684D-06  0.3931622D-06
dE/dy  0.4649772D-06 -0.3047674D-07 -0.3931622D-06  0.8074684D-06  0.4350592D-06
dE/dz  0.3244806D-06  0.3244806D-06 -0.7534254D-06  0.1740303D-06 -0.7534254D-06

  ATOM     16 c          17 c          18 c          19 c          20 c 
dE/dx  0.4649772D-06 -0.3047674D-07  0.4350592D-06  0.3047674D-07 -0.4649772D-06
dE/dy  0.3047674D-07 -0.4649772D-06 -0.3931622D-06 -0.4649772D-06  0.3047674D-07
dE/dz  0.3244806D-06  0.3244806D-06  0.7534254D-06 -0.3244806D-06 -0.3244806D-06

  ATOM     21 c          22 c          23 c          24 c          25 c 
dE/dx -0.3931622D-06  0.8074684D-06  0.3931622D-06  0.4649772D-06 -0.3047674D-07
dE/dy  0.4350592D-06  0.8074684D-06 -0.4350592D-06 -0.3047674D-07  0.4649772D-06
dE/dz  0.7534254D-06 -0.1740303D-06  0.7534254D-06 -0.3244806D-06 -0.3244806D-06

  ATOM     26 c          27 c          28 h          29 h          30 h 
dE/dx -0.4350592D-06 -0.8074684D-06  0.3323481D-06 -0.7590963D-06  0.7611837D-07
dE/dy  0.3931622D-06 -0.8074684D-06 -0.5043040D-07 -0.7578762D-06 -0.7611837D-07
dE/dz  0.7534254D-06 -0.1740303D-06  0.7882372D-06  0.8615358D-06  0.4429184D-07

  ATOM     31 h          32 h          33 h          34 h          35 h 
dE/dx  0.7578762D-06  0.5043040D-07  0.7590963D-06 -0.3323481D-06 -0.7611837D-07
dE/dy  0.7590963D-06 -0.3323481D-06  0.7578762D-06  0.5043040D-07  0.7611837D-07
dE/dz  0.8615358D-06  0.7882372D-06  0.8615358D-06  0.7882372D-06  0.4429184D-07

  ATOM     36 h          37 h          38 h          39 h          40 h 
dE/dx -0.5043040D-07 -0.7578762D-06 -0.3323481D-06 -0.7611837D-07 -0.5043040D-07
dE/dy  0.3323481D-06 -0.7590963D-06 -0.5043040D-07 -0.7611837D-07 -0.3323481D-06
dE/dz  0.7882372D-06  0.8615358D-06 -0.7882372D-06 -0.4429184D-07 -0.7882372D-06

  ATOM     41 h          42 h          43 h          44 h          45 h 
dE/dx -0.7578762D-06  0.7590963D-06 -0.7590963D-06  0.3323481D-06  0.7611837D-07
dE/dy  0.7590963D-06 -0.7578762D-06  0.7578762D-06  0.5043040D-07  0.7611837D-07
dE/dz -0.8615358D-06 -0.8615358D-06 -0.8615358D-06 -0.7882372D-06 -0.4429184D-07

  ATOM     46 h          47 h 
dE/dx  0.7578762D-06  0.5043040D-07
dE/dy -0.7590963D-06  0.3323481D-06
dE/dz -0.8615358D-06 -0.7882372D-06
 
 resulting FORCE  (fx,fy,fz) = (0.178D-14,-.888D-15,0.000D+00)
 resulting MOMENT (mx,my,mz) = (0.152D-13,-.487D-14,-.275D-14)


 exx =       0.000010 eyy =       0.000010 ezz =      -0.000050
 eyz =      -0.000000 exz =      -0.000000 exy =       0.000000


 **********************************************************************
  |maximum component of gradient| : 0.45852674E-05  (atom  2 y )       
   gradient norm                  : 0.89572154E-05
 **********************************************************************
   ***  cartesian gradients written onto <gradient>  ***


     --- calculation of the energy gradient finished ---



    ------------------------------------------------------------------------
         total  cpu-time :  3 minutes and 46 seconds
         total wall-time :  32.65 seconds
    ------------------------------------------------------------------------

   ****  rdgrad : all done  ****


    2020-06-25 10:48:44.055 

fine, there is no data group "$actual step"
next step = relax

 statpt (c-12-38) : TURBOMOLE V7.2 ( 21454 ) 2 Oct 2017 at 16:43:05
 Copyright (C) 2017 TURBOMOLE GmbH, Karlsruhe


    2020-06-25 10:48:44.180 



                           this is S T A T P T   


                     hessian and coordinate update for
                          stationary point search 

                     by barbara unterreiner, marek sierka,
                           and reinhart ahlrichs

                          quantum chemistry group
                          universitaet  karlsruhe
                                  germany




              +--------------------------------------------------+
              | Atomic coordinate, charge and isotop information |
              +--------------------------------------------------+

                    atomic coordinates            atom    charge  isotop
          0.00000000    0.00000000    0.00000000    mo    42.000     0
          0.00000000    0.00000000   -6.32224137    y     39.000     0
          0.00000000    0.00000000    6.32224137    y     39.000     0
          2.43123854    2.43123854   -2.42569666    s     16.000     0
         -2.43123854   -2.43123854   -2.42569666    s     16.000     0
          2.43123854   -2.43123854    2.42569666    s     16.000     0
         -2.43123854    2.43123854    2.42569666    s     16.000     0
          4.58747189   -1.51721888   -7.53729524    c      6.000     0
          3.52729302   -3.52729302   -6.10877859    c      6.000     0
          1.51721888   -4.58747189   -7.53729524    c      6.000     0
          1.33842775   -3.23976312   -9.85325191    c      6.000     0
          3.23976312   -1.33842775   -9.85325191    c      6.000     0
         -1.51721888    4.58747189   -7.53729524    c      6.000     0
         -3.52729302    3.52729302   -6.10877859    c      6.000     0
         -4.58747189    1.51721888   -7.53729524    c      6.000     0
         -3.23976312    1.33842775   -9.85325191    c      6.000     0
         -1.33842775    3.23976312   -9.85325191    c      6.000     0
          1.51721888    4.58747189    7.53729524    c      6.000     0
          1.33842775    3.23976312    9.85325191    c      6.000     0
          3.23976312    1.33842775    9.85325191    c      6.000     0
          4.58747189    1.51721888    7.53729524    c      6.000     0
          3.52729302    3.52729302    6.10877859    c      6.000     0
         -4.58747189   -1.51721888    7.53729524    c      6.000     0
         -3.23976312   -1.33842775    9.85325191    c      6.000     0
         -1.33842775   -3.23976312    9.85325191    c      6.000     0
         -1.51721888   -4.58747189    7.53729524    c      6.000     0
         -3.52729302   -3.52729302    6.10877859    c      6.000     0
          0.31740233   -6.15628939   -6.95098268    h      1.000     0
         -0.00381473   -3.60998138  -11.37153964    h      1.000     0
          4.10901992   -4.10901992   -4.22052790    h      1.000     0
          3.60998138    0.00381473  -11.37153964    h      1.000     0
          6.15628939   -0.31740233   -6.95098268    h      1.000     0
          0.00381473    3.60998138  -11.37153964    h      1.000     0
         -0.31740233    6.15628939   -6.95098268    h      1.000     0
         -4.10901992    4.10901992   -4.22052790    h      1.000     0
         -6.15628939    0.31740233   -6.95098268    h      1.000     0
         -3.60998138   -0.00381473  -11.37153964    h      1.000     0
         -0.31740233   -6.15628939    6.95098268    h      1.000     0
         -4.10901992   -4.10901992    4.22052790    h      1.000     0
         -6.15628939   -0.31740233    6.95098268    h      1.000     0
         -3.60998138    0.00381473   11.37153964    h      1.000     0
          0.00381473   -3.60998138   11.37153964    h      1.000     0
         -0.00381473    3.60998138   11.37153964    h      1.000     0
          0.31740233    6.15628939    6.95098268    h      1.000     0
          4.10901992    4.10901992    4.22052790    h      1.000     0
          3.60998138   -0.00381473   11.37153964    h      1.000     0
          6.15628939    0.31740233    6.95098268    h      1.000     0
 
       center of nuclear mass  :    0.00000000    0.00000000    0.00000000
       center of nuclear charge:   -0.00000000   -0.00000000   -0.00000000
  Keyword $statpt not found - using default options
 
        ***************  Stationary point options ******************
        ************************************************************
           Maximum allowed trust radius:           3.000000E-01
           Minimum allowed trust radius:           1.000000E-03
           Initial trust radius:                   1.500000E-01
           GDIIS used if gradient norm <           1.000000E-02
           Number of previous steps for GDIIS:       5
           Hessian update method:                  BFGS
                        *** Convergence criteria ***                
           Threshold for energy change:            1.000000E-06
           Threshold for max displacement element: 1.000000E-03
           Threshold for max gradient element :    1.000000E-04
           Threshold for RMS of displacement:      5.000000E-04
           Threshold for RMS of gradient:          5.000000E-04
        ************************************************************
 

 keyword $statp missing in file <control>

  Keyword $statpt not found - using default options
     Number of symmetry restricted degrees of freedom:    19
     Constituted by:     0 translational degrees of freedom
                         0 rotational degrees of freedom
                      19 internal degrees of freedom

  *************************************************************************
   ATOM                      CARTESIAN COORDINATES
    1 mo      0.00000000000000      0.00000000000000      0.00000000000000
    2 y       0.00000000000000      0.00000000000000     -6.32224136693155
    3 y       0.00000000000000      0.00000000000000      6.32224136693155
    4 s       2.43123854428938      2.43123854428938     -2.42569666067514
    5 s      -2.43123854428938     -2.43123854428938     -2.42569666067514
    6 s       2.43123854428938     -2.43123854428938      2.42569666067514
    7 s      -2.43123854428938      2.43123854428938      2.42569666067514
    8 c       4.58747188877854     -1.51721887847199     -7.53729524087376
    9 c       3.52729301897179     -3.52729301897179     -6.10877859444081
   10 c       1.51721887847199     -4.58747188877854     -7.53729524087376
   11 c       1.33842775103060     -3.23976312449679     -9.85325191354699
   12 c       3.23976312449679     -1.33842775103060     -9.85325191354699
   13 c      -1.51721887847199      4.58747188877854     -7.53729524087376
   14 c      -3.52729301897179      3.52729301897179     -6.10877859444081
   15 c      -4.58747188877854      1.51721887847199     -7.53729524087376
   16 c      -3.23976312449679      1.33842775103060     -9.85325191354699
   17 c      -1.33842775103060      3.23976312449679     -9.85325191354699
   18 c       1.51721887847199      4.58747188877854      7.53729524087376
   19 c       1.33842775103060      3.23976312449679      9.85325191354699
   20 c       3.23976312449679      1.33842775103060      9.85325191354699
   21 c       4.58747188877854      1.51721887847199      7.53729524087376
   22 c       3.52729301897179      3.52729301897179      6.10877859444081
   23 c      -4.58747188877854     -1.51721887847199      7.53729524087376
   24 c      -3.23976312449679     -1.33842775103060      9.85325191354699
   25 c      -1.33842775103060     -3.23976312449679      9.85325191354699
   26 c      -1.51721887847199     -4.58747188877854      7.53729524087376
   27 c      -3.52729301897179     -3.52729301897179      6.10877859444081
   28 h       0.31740233382168     -6.15628939344028     -6.95098267999860
   29 h      -0.00381473073805     -3.60998137887867    -11.37153963688143
   30 h       4.10901991785755     -4.10901991785755     -4.22052790480606
   31 h       3.60998137887867      0.00381473073805    -11.37153963688143
   32 h       6.15628939344028     -0.31740233382168     -6.95098267999860
   33 h       0.00381473073805      3.60998137887867    -11.37153963688143
   34 h      -0.31740233382168      6.15628939344028     -6.95098267999860
   35 h      -4.10901991785755      4.10901991785755     -4.22052790480606
   36 h      -6.15628939344028      0.31740233382168     -6.95098267999860
   37 h      -3.60998137887867     -0.00381473073805    -11.37153963688143
   38 h      -0.31740233382168     -6.15628939344028      6.95098267999860
   39 h      -4.10901991785755     -4.10901991785755      4.22052790480606
   40 h      -6.15628939344028     -0.31740233382168      6.95098267999860
   41 h      -3.60998137887867      0.00381473073805     11.37153963688143
   42 h       0.00381473073805     -3.60998137887867     11.37153963688143
   43 h      -0.00381473073805      3.60998137887867     11.37153963688143
   44 h       0.31740233382168      6.15628939344028      6.95098267999860
   45 h       4.10901991785755      4.10901991785755      4.22052790480606
   46 h       3.60998137887867     -0.00381473073805     11.37153963688143
   47 h       6.15628939344028      0.31740233382168      6.95098267999860
  *************************************************************************
   ATOM                      CARTESIAN GRADIENTS  
    1 mo      0.00000000000000      0.00000000000000      0.00000000000000
    2 y       0.00000000000000      0.00000000000000     -0.00000458526739
    3 y       0.00000000000000      0.00000000000000      0.00000458526739
    4 s      -0.00000048204292     -0.00000048204292      0.00000010410235
    5 s       0.00000048204292      0.00000048204292      0.00000010410235
    6 s      -0.00000048204292      0.00000048204292     -0.00000010410235
    7 s       0.00000048204292     -0.00000048204292     -0.00000010410235
    8 c      -0.00000039316224     -0.00000043505922     -0.00000075342536
    9 c       0.00000080746836     -0.00000080746836      0.00000017403027
   10 c       0.00000043505922      0.00000039316224     -0.00000075342536
   11 c       0.00000003047674      0.00000046497716      0.00000032448058
   12 c      -0.00000046497716     -0.00000003047674      0.00000032448058
   13 c      -0.00000043505922     -0.00000039316224     -0.00000075342536
   14 c      -0.00000080746836      0.00000080746836      0.00000017403027
   15 c       0.00000039316224      0.00000043505922     -0.00000075342536
   16 c       0.00000046497716      0.00000003047674      0.00000032448058
   17 c      -0.00000003047674     -0.00000046497716      0.00000032448058
   18 c       0.00000043505922     -0.00000039316224      0.00000075342536
   19 c       0.00000003047674     -0.00000046497716     -0.00000032448058
   20 c      -0.00000046497716      0.00000003047674     -0.00000032448058
   21 c      -0.00000039316224      0.00000043505922      0.00000075342536
   22 c       0.00000080746836      0.00000080746836     -0.00000017403027
   23 c       0.00000039316224     -0.00000043505922      0.00000075342536
   24 c       0.00000046497716     -0.00000003047674     -0.00000032448058
   25 c      -0.00000003047674      0.00000046497716     -0.00000032448058
   26 c      -0.00000043505922      0.00000039316224      0.00000075342536
   27 c      -0.00000080746836     -0.00000080746836     -0.00000017403027
   28 h       0.00000033234806     -0.00000005043040      0.00000078823719
   29 h      -0.00000075909630     -0.00000075787620      0.00000086153582
   30 h       0.00000007611837     -0.00000007611837      0.00000004429184
   31 h       0.00000075787620      0.00000075909630      0.00000086153582
   32 h       0.00000005043040     -0.00000033234807      0.00000078823719
   33 h       0.00000075909630      0.00000075787620      0.00000086153582
   34 h      -0.00000033234807      0.00000005043040      0.00000078823719
   35 h      -0.00000007611837      0.00000007611837      0.00000004429184
   36 h      -0.00000005043040      0.00000033234806      0.00000078823719
   37 h      -0.00000075787620     -0.00000075909630      0.00000086153582
   38 h      -0.00000033234807     -0.00000005043040     -0.00000078823719
   39 h      -0.00000007611837     -0.00000007611837     -0.00000004429184
   40 h      -0.00000005043040     -0.00000033234806     -0.00000078823719
   41 h      -0.00000075787620      0.00000075909630     -0.00000086153582
   42 h       0.00000075909630     -0.00000075787620     -0.00000086153582
   43 h      -0.00000075909630      0.00000075787620     -0.00000086153582
   44 h       0.00000033234806      0.00000005043040     -0.00000078823719
   45 h       0.00000007611837      0.00000007611837     -0.00000004429184
   46 h       0.00000075787620     -0.00000075909630     -0.00000086153582
   47 h       0.00000005043040      0.00000033234807     -0.00000078823719
  *************************************************************************

  norm of actual CARTESIAN gradient:  8.95722E-06
  norm of actual INTERNAL  gradient:  9.24382E-06

  ENERGY =   -2512.2262718030 a.u.; # of cycle =   18

  Approximate Hessian read from $hessapprox data section

  Hessian updated according to BFGS formula
  Number of zero Hessian eigenvalues:   0
  Number of structures for GDIIS interpolation:    5
  GDIIS step:     0.000237

  Transforming internal coordinate displacements to Cartesian space
      Iteration   1 residual norm     2.371146E-04
      Iteration   2 residual norm     3.413126E-09
      Transformation converged
      Residual norm:    3.413126E-09 after    2 iterations

      ****************************************************************** 
                          CONVERGENCE INFORMATION

                               Converged?     Value      Criterion
             Energy change         yes      0.0000001   0.0000010
             RMS of displacement   yes      0.0000544   0.0005000
             RMS of gradient       yes      0.0000021   0.0005000
             MAX displacement      yes      0.0001348   0.0010000
             MAX gradient          yes      0.0000055   0.0001000
      ****************************************************************** 


    ------------------------------------------------------------------------
         total  cpu-time :   0.11 seconds
         total wall-time :   0.11 seconds
    ------------------------------------------------------------------------

   ****  statpt : all done  ****


    2020-06-25 10:48:44.270 

fine, there is no data group "$actual step"
next step = ridft
           Doing BLAS/Lapack in the master proc. with 16 CPUs.
           SMPCPUS    set: Shared-memory Parallelization with  28 CPUs.

           SMP Parallelization Reference:
           C. van Wullen, J. Comput. Chem. 32 (2011) 1195--1201

 ridft (c-12-38) : TURBOMOLE V7.2 ( 21454 ) 4 Oct 2017 at 12:48:15
 Copyright (C) 2017 TURBOMOLE GmbH, Karlsruhe


    2020-06-25 10:48:44.774 



                                  r i d f t

                        DFT program with RI approximation 
                                for coulomb part 




                                                 
                                 References:     
                                                 
          TURBOMOLE:                             
              R. Ahlrichs, M. Baer, M. Haeser, H. Horn, and
              C. Koelmel
              Electronic structure calculations on workstation
              computers: the program system TURBOMOLE
              Chem. Phys. Lett. 162: 165 (1989)
          Density Functional:                              
              O. Treutler and R. Ahlrichs                      
              Efficient Molecular Numerical Integration Schemes
              J. Chem. Phys. 102: 346 (1995)                   
          Parallel Version:                                
              Performance of parallel TURBOMOLE for Density    
              Functional Calculations                          
              M. v. Arnim and R. Ahlrichs                      
              J. Comp. Chem. 19: 1746 (1998)                   
          RI-J Method:                                     
              Auxiliary Basis Sets to approximate Coulomb      
              Potentials                                       
              Chem. Phys. Lett. 240: 283 (1995)                
              K. Eichkorn, O. Treutler, H. Oehm, M. Haeser     
              and R. Ahlrichs                                  
              Chem. Phys. Lett. 242: 652 (1995)                
                                                           
              Auxiliary Basis Sets for Main Row Atoms and their
              Use to approximate Coulomb Potentials            
              K. Eichkorn, F. Weigend, O. Treutler and         
              R. Ahlrichs                                      
              Theo. Chem. Acc. 97: 119 (1997)                   
                                                           
              Accurate Coulomb-fitting basis sets for H to Rn 
              F. Weigend                                        
              Phys. Chem. Chem. Phys. 8: 1057 (2006)            
                                                           
          Multipole accelerated RI-J (MARI-J):             
              Fast evaluation of the Coulomb potential for     
              electron densities using multipole accelerated   
              resolution of identity approximation             
              M. Sierka, A. Hogekamp and R. Ahlrichs           
              J. Chem. Phys. 118: 9136 (2003)                  
          RI-JK Method:                                     
              A fully direct RI-HF algorithm: Implementation,
              optimised auxiliary basis sets, demonstration of
              accuracy and efficiency                         
              F. Weigend                                      
              Phys. Chem. Chem. Phys. 4: 4285 (2002)           
          Two-component HF and DFT with spin-orbit coupling:  
              Self-consistent treatment of spin-orbit         
              interactions with efficient Hartree-Fock and    
              density functional methods                      
              M. K. Armbruster, F. Weigend, C. van Wüllen and 
              W. Klopper                                      
              Phys. Chem. Chem. Phys. 10: 1748 (2008)         
          Relativistic all-electron 2c calculations           
              An efficient implementation of two-component    
              relativistic exact-decoupling methods for large 
              molecules                                       
              D. Peng, N. Middendorf, F. Weigend, M. Reiher   
              J. Chem. Phys. 138, 184105 (2013)               
                                         




              +--------------------------------------------------+
              |      general information about current run       |
              +--------------------------------------------------+

 

 UHF modus switched on !

 DENSITY CONVERGENCE CHECK SWITCHED ON !
 SCF CONVERGENCE IF RMS(delta[D]) <     0.1000000000E-06

 TPSS global hybrid functional
 exchange:    9/10 (LDA+TPSS) + 1/10 HF
 correlation: LDA (PW) + TPSS
 A Hybrid-DFT calculation using the RI-J approximation will be carried out.
 Allocatable memory for RI due to $ricore (MB):                105000


              +--------------------------------------------------+
              | Atomic coordinate, charge and isotop information |
              +--------------------------------------------------+

                    atomic coordinates            atom    charge  isotop
          0.00000000    0.00000000    0.00000000    mo    42.000     0
          0.00000000    0.00000000   -6.32223334    y     39.000     0
          0.00000000    0.00000000    6.32223334    y     39.000     0
          2.43124401    2.43124401   -2.42568759    s     16.000     0
         -2.43124401   -2.43124401   -2.42568759    s     16.000     0
          2.43124401   -2.43124401    2.42568759    s     16.000     0
         -2.43124401    2.43124401    2.42568759    s     16.000     0
          4.58746125   -1.51720420   -7.53735509    c      6.000     0
          3.52729453   -3.52729453   -6.10884725    c      6.000     0
          1.51720420   -4.58746125   -7.53735509    c      6.000     0
          1.33839634   -3.23972958   -9.85329654    c      6.000     0
          3.23972958   -1.33839634   -9.85329654    c      6.000     0
         -1.51720420    4.58746125   -7.53735509    c      6.000     0
         -3.52729453    3.52729453   -6.10884725    c      6.000     0
         -4.58746125    1.51720420   -7.53735509    c      6.000     0
         -3.23972958    1.33839634   -9.85329654    c      6.000     0
         -1.33839634    3.23972958   -9.85329654    c      6.000     0
          1.51720420    4.58746125    7.53735509    c      6.000     0
          1.33839634    3.23972958    9.85329654    c      6.000     0
          3.23972958    1.33839634    9.85329654    c      6.000     0
          4.58746125    1.51720420    7.53735509    c      6.000     0
          3.52729453    3.52729453    6.10884725    c      6.000     0
         -4.58746125   -1.51720420    7.53735509    c      6.000     0
         -3.23972958   -1.33839634    9.85329654    c      6.000     0
         -1.33839634   -3.23972958    9.85329654    c      6.000     0
         -1.51720420   -4.58746125    7.53735509    c      6.000     0
         -3.52729453   -3.52729453    6.10884725    c      6.000     0
          0.31738606   -6.15628408   -6.95105948    h      1.000     0
         -0.00384009   -3.60991771  -11.37159623    h      1.000     0
          4.10903117   -4.10903117   -4.22060246    h      1.000     0
          3.60991771    0.00384009  -11.37159623    h      1.000     0
          6.15628408   -0.31738606   -6.95105948    h      1.000     0
          0.00384009    3.60991771  -11.37159623    h      1.000     0
         -0.31738606    6.15628408   -6.95105948    h      1.000     0
         -4.10903117    4.10903117   -4.22060246    h      1.000     0
         -6.15628408    0.31738606   -6.95105948    h      1.000     0
         -3.60991771   -0.00384009  -11.37159623    h      1.000     0
         -0.31738606   -6.15628408    6.95105948    h      1.000     0
         -4.10903117   -4.10903117    4.22060246    h      1.000     0
         -6.15628408   -0.31738606    6.95105948    h      1.000     0
         -3.60991771    0.00384009   11.37159623    h      1.000     0
          0.00384009   -3.60991771   11.37159623    h      1.000     0
         -0.00384009    3.60991771   11.37159623    h      1.000     0
          0.31738606    6.15628408    6.95105948    h      1.000     0
          4.10903117    4.10903117    4.22060246    h      1.000     0
          3.60991771   -0.00384009   11.37159623    h      1.000     0
          6.15628408    0.31738606    6.95105948    h      1.000     0
 
       center of nuclear mass  :    0.00000000    0.00000000   -0.00000000
       center of nuclear charge:   -0.00000000    0.00000000    0.00000000

              +--------------------------------------------------+
              |               basis set information              |
              +--------------------------------------------------+

              we will work with the 1s 3p 5d 7f 9g ... basis set
              ...i.e. with spherical basis functions...

   type   atoms  prim   cont   basis
   ---------------------------------------------------------------------------
    mo       1     60     40   def2-TZVP   [6s4p3d1f|7s7p5d1f]
    y        2     60     40   def2-TZVP   [6s4p3d1f|7s7p5d1f]
    s        4     63     37   def2-TZVP   [5s5p2d1f|14s9p3d1f]
    c       20     24     14   def2-SVP   [3s2p1d|7s4p1d]
    h       20      7      5   def2-SVP   [2s1p|4s1p]
   ---------------------------------------------------------------------------
   total:   47   1052    648
   ---------------------------------------------------------------------------

   total number of primitive shells          :   84
   total number of contracted shells         :  274
   total number of cartesian basis functions :  706
   total number of SCF-basis functions       :  648


 integral neglect threshold       :  0.47E-11
 integral storage threshold THIZE :  0.10E-04
 integral storage threshold THIME :         5

 number of unique ecp types :                     2
 RI-J AUXILIARY BASIS SET information:

              we will work with the 1s 3p 5d 7f 9g ... basis set
              ...i.e. with spherical basis functions...

   type   atoms  prim   cont   basis
   ---------------------------------------------------------------------------
    mo       1     99     89   def2-TZVP   [8s5p5d2f3g|11s5p5d3f3g]
    y        2     99     89   def2-TZVP   [8s5p5d2f3g|11s5p5d3f3g]
    s        4     77     51   def2-TZVP   [8s4p3d1f1g|14s5p5d2f1g]
    c       20     70     49   def2-SVP   [6s4p3d1f1g|12s5p4d2f1g]
    h       20     16     11   def2-SVP   [3s1p1d|5s2p1d]
   ---------------------------------------------------------------------------
   total:   47   2325   1671
   ---------------------------------------------------------------------------

   total number of primitive shells          :  113
   total number of contracted shells         :  537
   total number of cartesian basis functions : 2066
   total number of SCF-basis functions       : 1671


 symmetry group of the molecule :   d2d

 the group has the following generators :
   s4(z)
   c2(x)

    8 symmetry operations found

 there are 5 real representations :   a1   a2   b1   b2   e   

 maximum number of shells which are related by symmetry :  8

 ==============================================================================
                      COSMO switched on
 ==============================================================================
 COSMO stati: segments per atom: H   32 other atoms   92
 COSMO statistics: nps   1508 npspher:    636
 COSMO surface:
   number of segments: 1508
   area (bohr**2):     1477.947241
   volume (bohr**3):   3823.732921
 COSMO: check number of disjunct cavities:

       ... OK contiguous cavity found
   sym. distinct segments:  264
   sym. dist. seg. on spheres:  104
   min. distance between points:      0.296924
   max. symmetrization distance error:      0.000083

 Surface grid was constructed by projection of gridpoints of symmetry distict atoms.
 This may lead to differences compared to C1 results.

    mo occupation :
   irrep   mo's   occupied
    a1     105       22
    a2      60        9
    b1      62        9
    b2     103       21
    e      159       30
 
 number of basis functions   :                    648
 number of occupied orbitals :                    121
 
  
           ------------------
           density functional
           ------------------
 TPSS global hybrid functional
 exchange:    9/10 (LDA+TPSS) + 1/10 HF
 correlation: LDA (PW) + TPSS

 spherical integration : Lebedev's spherical grid
 spherical gridsize    :                     4
    i.e. gridpoints    :                   434
 value for diffuse not defined
 radial integration    : Chebyshev 2nd kind (scaling 3)
 radial gridsize       :                     6
 integration cells     :                     9
 partition function    : becke
 partition sharpness   :                     3
  

 biggest AO integral is expected to be     9.804440325
  
           ------------------------
               RI-J - INFORMATION
           ------------------------
 Contributions to RI integral batches: 
  neglected integral batches:                 33818
  direct contribution:                            0
  memory contribution:                  3857
 Memory core needed for (P|Q) and Cholesky      1 MByte
 Memory core minimum needed except of (P|Q)     1 MByte
 Total minimum memory core needed (sum)         2 MByte
  
 ****************************************
 Memory allocated for RI-J   475 MByte
 ****************************************
                                            

          ------------------------
          nuclear repulsion energy  :   3420.00549460    
          ------------------------

  _________________________________
 |                                 |
 |         DFTD3 V3.1 Rev 0        |
 | S.Grimme, University Bonn       |
 |            June  2014           |
 |   see standalone version        |
 |       dftd3 -h for options      |
 |_________________________________|
 
 Please cite DFT-D3 work done with this code as:
 S. Grimme, J. Antony, S. Ehrlich and H. Krieg,
 J. Chem. Phys, 132 (2010), 154104.
 If used with BJ-damping cite also
 S. Grimme, S. Ehrlich and L. Goerigk,
 J. Comput. Chem. 32 (2011), 1456-1465
 For DFT-D2 the reference is
 S. Grimme, J. Comput. Chem., 27 (2006), 1787-1799
 
C6 coefficients used:
                     2  C6 for element                      1
Z=  1 CN= 0.912     C6(AA)=    3.03
Z=  1 CN= 0.000     C6(AA)=    7.59
                     5  C6 for element                      6
Z=  6 CN= 0.000     C6(AA)=   49.11
Z=  6 CN= 0.987     C6(AA)=   43.25
Z=  6 CN= 1.998     C6(AA)=   29.36
Z=  6 CN= 2.999     C6(AA)=   25.78
Z=  6 CN= 3.984     C6(AA)=   18.21
                     3  C6 for element                     16
Z= 16 CN= 0.000     C6(AA)=  134.01
Z= 16 CN= 0.995     C6(AA)=  131.00
Z= 16 CN= 1.990     C6(AA)=  125.81
                     3  C6 for element                     39
Z= 39 CN= 0.000     C6(AA)= 2365.89
Z= 39 CN= 1.915     C6(AA)= 1132.30
Z= 39 CN= 2.890     C6(AA)=  451.08
                     3  C6 for element                     42
Z= 42 CN= 0.000     C6(AA)=  845.90
Z= 42 CN= 1.942     C6(AA)=  502.01
Z= 42 CN=11.056     C6(AA)=  337.11

#           XYZ [au]              R0(AA) [Ang.]  CN          C6(AA)     C8(AA)   C10(AA) [au]
  1   0.00000   0.00000   0.00000   mo  1.286  5.576       502.0     57804.9   8153712.7
  2   0.00000   0.00000  -6.32223   y   1.655 11.622       451.1     86005.2  20087594.1
  3   0.00000   0.00000   6.32223   y   1.655 11.622       451.1     86005.2  20087594.1
  4   2.43124   2.43124  -2.42569   s   0.839  2.037       125.9      6166.9    370100.0
  5  -2.43124  -2.43124  -2.42569   s   0.839  2.037       125.9      6166.9    370100.0
  6   2.43124  -2.43124   2.42569   s   0.839  2.037       125.9      6166.9    370100.0
  7  -2.43124   2.43124   2.42569   s   0.839  2.037       125.9      6166.9    370100.0
  8   4.58746  -1.51720  -7.53736   c   0.644  4.101        18.3       528.1     18711.2
  9   3.52729  -3.52729  -6.10885   c   0.644  4.099        18.3       528.2     18712.4
 10   1.51720  -4.58746  -7.53736   c   0.644  4.101        18.3       528.1     18711.2
 11   1.33840  -3.23973  -9.85330   c   0.644  4.100        18.3       528.1     18711.8
 12   3.23973  -1.33840  -9.85330   c   0.644  4.100        18.3       528.1     18711.8
 13  -1.51720   4.58746  -7.53736   c   0.644  4.101        18.3       528.1     18711.2
 14  -3.52729   3.52729  -6.10885   c   0.644  4.099        18.3       528.2     18712.4
 15  -4.58746   1.51720  -7.53736   c   0.644  4.101        18.3       528.1     18711.2
 16  -3.23973   1.33840  -9.85330   c   0.644  4.100        18.3       528.1     18711.8
 17  -1.33840   3.23973  -9.85330   c   0.644  4.100        18.3       528.1     18711.8
 18   1.51720   4.58746   7.53736   c   0.644  4.101        18.3       528.1     18711.2
 19   1.33840   3.23973   9.85330   c   0.644  4.100        18.3       528.1     18711.8
 20   3.23973   1.33840   9.85330   c   0.644  4.100        18.3       528.1     18711.8
 21   4.58746   1.51720   7.53736   c   0.644  4.101        18.3       528.1     18711.2
 22   3.52729   3.52729   6.10885   c   0.644  4.099        18.3       528.2     18712.4
 23  -4.58746  -1.51720   7.53736   c   0.644  4.101        18.3       528.1     18711.2
 24  -3.23973  -1.33840   9.85330   c   0.644  4.100        18.3       528.1     18711.8
 25  -1.33840  -3.23973   9.85330   c   0.644  4.100        18.3       528.1     18711.8
 26  -1.51720  -4.58746   7.53736   c   0.644  4.101        18.3       528.1     18711.2
 27  -3.52729  -3.52729   6.10885   c   0.644  4.099        18.3       528.2     18712.4
 28   0.31739  -6.15628  -6.95106   h   0.417  1.012         3.1        37.3       552.2
 29  -0.00384  -3.60992 -11.37160   h   0.417  1.012         3.1        37.3       552.3
 30   4.10903  -4.10903  -4.22060   h   0.417  1.014         3.1        37.3       552.2
 31   3.60992   0.00384 -11.37160   h   0.417  1.012         3.1        37.3       552.3
 32   6.15628  -0.31739  -6.95106   h   0.417  1.012         3.1        37.3       552.2
 33   0.00384   3.60992 -11.37160   h   0.417  1.012         3.1        37.3       552.3
 34  -0.31739   6.15628  -6.95106   h   0.417  1.012         3.1        37.3       552.2
 35  -4.10903   4.10903  -4.22060   h   0.417  1.014         3.1        37.3       552.2
 36  -6.15628   0.31739  -6.95106   h   0.417  1.012         3.1        37.3       552.2
 37  -3.60992  -0.00384 -11.37160   h   0.417  1.012         3.1        37.3       552.3
 38  -0.31739  -6.15628   6.95106   h   0.417  1.012         3.1        37.3       552.2
 39  -4.10903  -4.10903   4.22060   h   0.417  1.014         3.1        37.3       552.2
 40  -6.15628  -0.31739   6.95106   h   0.417  1.012         3.1        37.3       552.2
 41  -3.60992   0.00384  11.37160   h   0.417  1.012         3.1        37.3       552.3
 42   0.00384  -3.60992  11.37160   h   0.417  1.012         3.1        37.3       552.3
 43  -0.00384   3.60992  11.37160   h   0.417  1.012         3.1        37.3       552.3
 44   0.31739   6.15628   6.95106   h   0.417  1.012         3.1        37.3       552.2
 45   4.10903   4.10903   4.22060   h   0.417  1.014         3.1        37.3       552.2
 46   3.60992  -0.00384  11.37160   h   0.417  1.012         3.1        37.3       552.3
 47   6.15628   0.31739   6.95106   h   0.417  1.012         3.1        37.3       552.2

molecular C6(AA) [au] =     52004.16

           DFT-D V3(BJ)
 DF tpssh                                             
 parameters
 s6       :    1.0000
 s8       :    2.2382
 a1       :    0.4529
 a2       :    4.6550
 k1-k3    :   16.0000    1.3333   -4.0000
 
 Edisp /kcal,au:   -69.2467 -0.11035161

 E6    /kcal :   -27.2885
 E8    /kcal :   -41.9582
 % E8        : 60.59
 nuclear repulsion energy                  =    3420.005494603
 empirical dispersive energy correction    =      -0.110351613
 nuclear repulsion + dispersion correction =    3419.895142990


         -----------------
         -S,T+V- integrals
         -----------------

 1e-integrals will be neglected if expon. factor < 0.473366E-12


          ----------------
          -ecp-  integrals
          ----------------
 Difference densities >>NOT<< switched on in parallel ridft!

 DIIS switched on: error vector is FDS-SDF
 Max. Iterations for DIIS is     :   4
 DIIS matrix (see manual) 
    Scaling factor of diagonals  :  1.200
    threshold for scaling factor :  0.000

 scf convergence criterion : increment of total energy < .1000000D-06
                  and increment of one-electron energy < .1000000D-03

  MOs are in ASCII format !


 closed shell shift switched on 
 all occupied orbitals are shifted by    0.05000


 reading orbital data $uhfmo_alpha  from file alpha
 orbital characterization : scfconv=7

 reading orbital data $uhfmo_beta  from file beta
 orbital characterization : scfconv=7

 DSCF restart information will be dumped onto file alpha


 Starting SCF iterations

COSMO: using sym. in pot. calc.
          Overall gridpoints after grid construction =         62534

 ITERATION  ENERGY          1e-ENERGY        2e-ENERGY     RMS[dD(SAO)]   TOL
   1  -2512.2262717522    -10334.557832     4402.4364176    0.000D+00 0.472D-11
                            Exc = -214.620224383     Coul =  4639.81440847    
                            exK = -22.7577665316    
                         Ntotal = 241.00128720      Nspin = 1.0000054860    
                             Na = 121.00064634         Nb = 120.00064085    
                          Ediel =-0.616857056160E-01
                            current damping = 0.600
 
          max. resid. norm for Fia-block=  8.040D-06 for orbital      2a1   alpha
          max. resid. fock norm         =  9.128D-05 for orbital    103b2   alpha
COSMO: using sym. in pot. calc.

 ITERATION  ENERGY          1e-ENERGY        2e-ENERGY     RMS[dD(SAO)]   TOL
   2  -2512.2262717559    -10334.557463     4402.4360478    0.525D-06 0.472D-11
                            Exc = -214.620218890     Coul =  4639.81403304    
                            exK = -22.7577663849    
                         Ntotal = 241.00128719      Nspin = 1.0000054861    
                             Na = 121.00064634         Nb = 120.00064085    
                          Ediel =-0.616854657688E-01
                            current damping = 0.600
 
          Norm of current diis error: 0.53402E-04
          max. resid. norm for Fia-block=  3.564D-06 for orbital     19b2   beta 
          max. resid. fock norm         =  3.424D-05 for orbital    103b2   alpha
COSMO: using sym. in pot. calc.

 ITERATION  ENERGY          1e-ENERGY        2e-ENERGY     RMS[dD(SAO)]   TOL
   3  -2512.2262717525    -10334.557850     4402.4364348    0.288D-06 0.472D-11
                            Exc = -214.620226625     Coul =  4639.81442818    
                            exK = -22.7577667885    
                         Ntotal = 241.00128720      Nspin = 1.0000054860    
                             Na = 121.00064634         Nb = 120.00064085    
                          Ediel =-0.616857963165E-01
                            current damping = 0.650
 
          Norm of current diis error: 0.32652E-04
          max. resid. norm for Fia-block=  1.154D-06 for orbital      2a1   alpha
          max. resid. fock norm         =  1.284D-05 for orbital    103b2   alpha
COSMO: using sym. in pot. calc.

 ENERGY & DENSITY CONVERGED !


 ITERATION  ENERGY          1e-ENERGY        2e-ENERGY     RMS[dD(SAO)]   TOL
   4  -2512.2262717531    -10334.557809     4402.4363938    0.930D-07 0.472D-11
                            Exc = -214.620224995     Coul =  4639.81438550    
                            exK = -22.7577666637    
                         Ntotal = 241.00128720      Nspin = 1.0000054861    
                             Na = 121.00064634         Nb = 120.00064085    
                          Ediel =-0.616857095155E-01
                            current damping = 0.700
 
          Norm of current diis error: 0.18073E-04
          max. resid. norm for Fia-block=  4.632D-07 for orbital      2a1   alpha
          max. resid. fock norm         =  5.056D-06 for orbital    103b2   alpha

 End of SCF iterations
 COSMO: write data to file cosmo_transfer.tmp
COSMO: using sym. in pot. calc.

   convergence criteria satisfied after     4 iterations


                  ------------------------------------------ 
                 |  total energy      =  -2512.22627175310  |
                  ------------------------------------------ 
                 :  kinetic energy    =   2402.98618880266  :
                 :  potential energy  =  -4915.21246055576  :
                 :  virial theorem    =      1.95651662266  :
                 :  wavefunction norm =      1.00000000000  :
                  .......................................... 


 orbitals $uhfmo_beta  will be written to file beta

 orbitals $uhfmo_alpha  will be written to file alpha
 
 alpha: 

    irrep                 18a1        19a1        20a1        21a1        22a1  
 eigenvalues H         -0.33318    -0.29457    -0.27431    -0.21454    -0.12600
            eV          -9.0663     -8.0156     -7.4645     -5.8379     -3.4287
 occupation              1.0000      1.0000      1.0000      1.0000      1.0000 

    irrep                 23a1        24a1        25a1        26a1        27a1  
 eigenvalues H          0.00067     0.03521     0.04248     0.07615     0.11038
            eV           0.0181      0.9581      1.1559      2.0721      3.0035

    irrep                  5a2         6a2         7a2         8a2         9a2  
 eigenvalues H         -0.48959    -0.34863    -0.33017    -0.21963    -0.17882
            eV         -13.3226     -9.4867     -8.9844     -5.9765     -4.8659
 occupation              1.0000      1.0000      1.0000      1.0000      1.0000 

    irrep                 10a2        11a2        12a2        13a2        14a2  
 eigenvalues H          0.05616     0.10457     0.15050     0.20295     0.23995
            eV           1.5283      2.8454      4.0955      5.5226      6.5294

    irrep                  5b1         6b1         7b1         8b1         9b1  
 eigenvalues H         -0.48960    -0.34864    -0.33021    -0.27245    -0.21057
            eV         -13.3229     -9.4871     -8.9856     -7.4139     -5.7300
 occupation              1.0000      1.0000      1.0000      1.0000      1.0000 

    irrep                 10b1        11b1        12b1        13b1        14b1  
 eigenvalues H         -0.07446     0.05632     0.10381     0.15189     0.20302
            eV          -2.0262      1.5324      2.8247      4.1332      5.5244

    irrep                 17b2        18b2        19b2        20b2        21b2  
 eigenvalues H         -0.35159    -0.33296    -0.28168    -0.24290    -0.21442
            eV          -9.5673     -9.0605     -7.6650     -6.6098     -5.8347
 occupation              1.0000      1.0000      1.0000      1.0000      1.0000 

    irrep                 22b2        23b2        24b2        25b2        26b2  
 eigenvalues H         -0.07149     0.02401     0.03775     0.06046     0.07199
            eV          -1.9454      0.6534      1.0272      1.6452      1.9591

    irrep                 26e         27e         28e         29e         30e   
 eigenvalues H         -0.27653    -0.23866    -0.21564    -0.20256    -0.18458
            eV          -7.5249     -6.4944     -5.8678     -5.5120     -5.0227
 occupation          2 * 1.0000  2 * 1.0000  2 * 1.0000  2 * 1.0000  2 * 1.0000 

    irrep                 31e         32e         33e         34e         35e   
 eigenvalues H         -0.03492     0.01642     0.04318     0.04941     0.06356
            eV          -0.9503      0.4468      1.1751      1.3446      1.7295
 
 beta:  

    irrep                 17a1        18a1        19a1        20a1        21a1  
 eigenvalues H         -0.35095    -0.33316    -0.27539    -0.27002    -0.21436
            eV          -9.5498     -9.0659     -7.4938     -7.3477     -5.8331
 occupation              1.0000      1.0000      1.0000      1.0000      1.0000 

    irrep                 22a1        23a1        24a1        25a1        26a1  
 eigenvalues H         -0.06925     0.01153     0.03566     0.04289     0.07821
            eV          -1.8845      0.3138      0.9703      1.1671      2.1283

    irrep                  5a2         6a2         7a2         8a2         9a2  
 eigenvalues H         -0.48960    -0.34862    -0.33016    -0.21963    -0.17961
            eV         -13.3228     -9.4865     -8.9842     -5.9765     -4.8875
 occupation              1.0000      1.0000      1.0000      1.0000      1.0000 

    irrep                 10a2        11a2        12a2        13a2        14a2  
 eigenvalues H          0.05657     0.10496     0.15044     0.20294     0.24013
            eV           1.5393      2.8562      4.0937      5.5223      6.5343

    irrep                  5b1         6b1         7b1         8b1         9b1  
 eigenvalues H         -0.48961    -0.34863    -0.33020    -0.26716    -0.20995
            eV         -13.3230     -9.4868     -8.9852     -7.2698     -5.7131
 occupation              1.0000      1.0000      1.0000      1.0000      1.0000 

    irrep                 10b1        11b1        12b1        13b1        14b1  
 eigenvalues H         -0.06259     0.05695     0.10421     0.15202     0.20303
            eV          -1.7032      1.5498      2.8358      4.1367      5.5247

    irrep                 17b2        18b2        19b2        20b2        21b2  
 eigenvalues H         -0.35152    -0.33296    -0.27499    -0.23815    -0.21422
            eV          -9.5655     -9.0604     -7.4829     -6.4805     -5.8292
 occupation              1.0000      1.0000      1.0000      1.0000      1.0000 

    irrep                 22b2        23b2        24b2        25b2        26b2  
 eigenvalues H         -0.06127     0.02912     0.03787     0.06077     0.07371
            eV          -1.6672      0.7924      1.0304      1.6536      2.0058

    irrep                 26e         27e         28e         29e         30e   
 eigenvalues H         -0.27310    -0.23733    -0.21168    -0.20247    -0.18421
            eV          -7.4316     -6.4582     -5.7602     -5.5096     -5.0125
 occupation          2 * 1.0000  2 * 1.0000  2 * 1.0000  2 * 1.0000  2 * 1.0000 

    irrep                 31e         32e         33e         34e         35e   
 eigenvalues H         -0.03119     0.01709     0.04369     0.04973     0.06373
            eV          -0.8487      0.4651      1.1889      1.3533      1.7341
 
 ==============================================================================
                                  COSMO RESULTS
 ==============================================================================
  PARAMETER:
    nppa:      1082
    nspa:        92
    nsph:        32
    nps:       1508
    npspher:    636
    disex:   10.0000    
    disex2:  4796.49    
    rsolv [A]: 1.3000
    routf:     0.8500
    phsran:    0.0    
    ampran:   0.10E-04
    cavity:  closed
    epsilon:     7.250
    refind:     1.300
    fepsi:      0.8064516
  CAVITY VOLUME/AREA [a.u.]:
    surface: V1.0, A matrix: V1.0
    area:  1477.95
    volume:  3823.73
  SCREENING CHARGE:
    cosmo      :   0.957116
    correction :   0.040997
    total      :   0.998113
  ENERGIES [a.u.]:
    Total energy            =   -2512.2262717530975
    Total energy + OC corr. =    -2512.2298149113
    Dielectric energy       =       -0.0616857095
    Diel. energy + OC corr. =       -0.0652288677
  ELEMENT RADIUS [A]: ATOM LIST
    mo 1.39: 1
    y  1.80: 2,3
    s  2.16: 4-7
    c  2.00: 8-27
    h  1.30: 28-47
 ==============================================================================

                                             _ _ _ 
  IRREP     alpha occ.     beta occ.      tr(D*D-D)


 a1        22.00000000    21.00000000    -0.25122993


 a2         9.00000000     9.00000000    -0.00000477


 b1         9.00000000     9.00000000    -0.00136213


 b2        21.00000000    21.00000000    -0.00082670


 e         60.00000000    60.00000000    -0.00068742

   -------------------------------------------------

   sum    121.00000000   120.00000000    -0.25411096

 <S*S>     0.75822192

 
 
 
 ==============================================================================
                           electrostatic moments
 ==============================================================================

 reference point for electrostatic moments:    0.00000   0.00000   0.00000

 
              nuc           elec       ->  total
 ------------------------------------------------------------------------------
                          charge      
 ------------------------------------------------------------------------------
         240.000000    -241.000000      -1.000000
 a-b                                     1.000000
 
 ------------------------------------------------------------------------------
                       dipole moment  
 ------------------------------------------------------------------------------
   x      -0.000000      -0.000000      -0.000000
   y       0.000000       0.000000       0.000000
   z      -0.000000      -0.000000      -0.000000
 
   | dipole moment | =     0.0000 a.u. =     0.0000 debye 
 
 ------------------------------------------------------------------------------
                     quadrupole moment
 ------------------------------------------------------------------------------
  xx    1803.781581   -1999.214654    -195.433072
  yy    1803.781581   -1999.214654    -195.433072
  zz   11031.017518  -11224.938518    -193.921001
  xy      -0.000000       0.000000      -0.000000
  xz       0.000000      -0.000000      -0.000000
  yz      -0.000000       0.000000       0.000000
 
     1/3  trace=    -194.929048
     anisotropy=       1.512072
 
 ==============================================================================
 


    ------------------------------------------------------------------------
         total  cpu-time :  8 minutes and 54 seconds
         total wall-time :  25.44 seconds
    ------------------------------------------------------------------------

   ****  ridft : all done  ****


    2020-06-25 10:49:10.160 

fine, there is no data group "$actual step"
next step = rdgrad
 energy change  : actual value =  -0.1200E-06 threshold =   0.1000E-05
 geom. gradient : actual value =   0.5462E-05 threshold =   0.1000E-03

CONVERGENCY CRITERIA FULFILLED IN CYCLE 18

