[Molden Format]
[Title]
                                                                                
[Atoms] AU
 mo    1   42 0.00000000000000E+00 0.00000000000000E+00 0.00000000000000E+00
 y     2   39 0.00000000000000E+00 0.00000000000000E+00 -.68198226912935E+01
 s     3   16 0.23339320529732E+01 0.23339320529732E+01 -.25575078964304E+01
 s     4   16 -.23339320529732E+01 -.23339320529732E+01 -.25575078964304E+01
 s     5   16 0.23339320529732E+01 -.23339320529732E+01 0.25575078964304E+01
 s     6   16 -.23339320529732E+01 0.23339320529732E+01 0.25575078964304E+01
 c     7    6 0.46906381248084E+01 -.15992283914300E+01 -.77320739351432E+01
 c     8    6 0.35518958165041E+01 -.35518958165041E+01 -.62504243738237E+01
 c     9    6 0.15992283914300E+01 -.46906381248084E+01 -.77320739351432E+01
 c    10    6 0.15564579080902E+01 -.34718890586989E+01 -.10147214248526E+02
 c    11    6 0.34718890586989E+01 -.15564579080902E+01 -.10147214248526E+02
 c    12    6 -.15992283914300E+01 0.46906381248084E+01 -.77320739351432E+01
 c    13    6 -.35518958165041E+01 0.35518958165041E+01 -.62504243738237E+01
 c    14    6 -.46906381248084E+01 0.15992283914300E+01 -.77320739351432E+01
 c    15    6 -.34718890586989E+01 0.15564579080902E+01 -.10147214248526E+02
 c    16    6 -.15564579080902E+01 0.34718890586989E+01 -.10147214248526E+02
 c    17    6 0.91205061943110E-01 -.69965623152122E+01 -.70180285774004E+01
 c    18    6 0.14853075950343E+00 -.44366126913247E+01 -.12422270774163E+02
 c    19    6 0.44805852523522E+01 -.44805852523522E+01 -.37338402554023E+01
 c    20    6 0.44366126913247E+01 -.14853075950343E+00 -.12422270774163E+02
 c    21    6 0.69965623152122E+01 -.91205061943110E-01 -.70180285774004E+01
 c    22    6 -.14853075950343E+00 0.44366126913247E+01 -.12422270774163E+02
 c    23    6 -.44805852523522E+01 0.44805852523522E+01 -.37338402554023E+01
 c    24    6 -.69965623152122E+01 0.91205061943100E-01 -.70180285774004E+01
 c    25    6 -.44366126913247E+01 0.14853075950343E+00 -.12422270774163E+02
 h    26    1 0.59458162895241E+01 -.59458162895241E+01 -.39973161261493E+01
 h    27    1 0.29540445781069E+01 -.53238350750031E+01 -.26034138299728E+01
 h    28    1 -.29540445781069E+01 0.53238350750031E+01 -.26034138299728E+01
 h    29    1 -.59458162895241E+01 0.59458162895241E+01 -.39973161261493E+01
 h    30    1 0.53238350750031E+01 -.29540445781069E+01 -.26034138299728E+01
 h    31    1 -.53238350750031E+01 0.29540445781069E+01 -.26034138299728E+01
 h    32    1 0.70095445190746E+01 0.17893016489669E+01 -.79097166980322E+01
 h    33    1 0.87370850677358E+01 -.10684553869587E+01 -.76336794115565E+01
 h    34    1 0.71299840593612E+01 0.18842022679447E+00 -.49628998570072E+01
 h    35    1 -.70095445190746E+01 -.17893016489669E+01 -.79097166980322E+01
 h    36    1 -.87370850677358E+01 0.10684553869587E+01 -.76336794115565E+01
 h    37    1 -.71299840593612E+01 -.18842022679447E+00 -.49628998570072E+01
 c    38    6 -.91205061943100E-01 0.69965623152122E+01 -.70180285774004E+01
 h    39    1 -.10684553869587E+01 0.87370850677358E+01 -.76336794115565E+01
 h    40    1 0.17893016489669E+01 0.70095445190746E+01 -.79097166980322E+01
 h    41    1 0.18842022679447E+00 0.71299840593612E+01 -.49628998570072E+01
 h    42    1 0.10684553869587E+01 -.87370850677358E+01 -.76336794115565E+01
 h    43    1 -.17893016489669E+01 -.70095445190746E+01 -.79097166980322E+01
 h    44    1 0.30073448041507E+01 -.60566703670200E-02 -.13921110888836E+02
 h    45    1 -.30073448041507E+01 0.60566703670200E-02 -.13921110888836E+02
 h    46    1 -.11419134605675E+01 0.60836282944136E+01 -.13237040487727E+02
 h    47    1 0.11419134605675E+01 -.60836282944136E+01 -.13237040487727E+02
 h    48    1 -.18842022679447E+00 -.71299840593612E+01 -.49628998570072E+01
 y    49   39 0.00000000000000E+00 0.00000000000000E+00 0.68198226912935E+01
 c    50    6 0.15992283914300E+01 0.46906381248084E+01 0.77320739351432E+01
 c    51    6 -.15992283914300E+01 -.46906381248084E+01 0.77320739351432E+01
 c    52    6 0.46906381248084E+01 0.15992283914300E+01 0.77320739351432E+01
 c    53    6 -.46906381248084E+01 -.15992283914300E+01 0.77320739351432E+01
 c    54    6 0.35518958165041E+01 0.35518958165041E+01 0.62504243738237E+01
 c    55    6 -.35518958165041E+01 -.35518958165041E+01 0.62504243738237E+01
 c    56    6 0.34718890586989E+01 0.15564579080902E+01 0.10147214248526E+02
 c    57    6 -.34718890586989E+01 -.15564579080902E+01 0.10147214248526E+02
 c    58    6 0.15564579080902E+01 0.34718890586989E+01 0.10147214248526E+02
 c    59    6 -.15564579080902E+01 -.34718890586989E+01 0.10147214248526E+02
 c    60    6 0.69965623152122E+01 0.91205061943110E-01 0.70180285774004E+01
 c    61    6 -.69965623152122E+01 -.91205061943100E-01 0.70180285774004E+01
 c    62    6 0.91205061943110E-01 0.69965623152122E+01 0.70180285774004E+01
 c    63    6 -.91205061943100E-01 -.69965623152122E+01 0.70180285774004E+01
 c    64    6 0.44366126913247E+01 0.14853075950343E+00 0.12422270774163E+02
 c    65    6 -.44366126913247E+01 -.14853075950343E+00 0.12422270774163E+02
 c    66    6 0.14853075950343E+00 0.44366126913247E+01 0.12422270774163E+02
 c    67    6 -.14853075950343E+00 -.44366126913247E+01 0.12422270774163E+02
 c    68    6 0.44805852523522E+01 0.44805852523522E+01 0.37338402554023E+01
 c    69    6 -.44805852523522E+01 -.44805852523522E+01 0.37338402554023E+01
 h    70    1 0.59458162895241E+01 0.59458162895241E+01 0.39973161261493E+01
 h    71    1 -.59458162895241E+01 -.59458162895241E+01 0.39973161261493E+01
 h    72    1 0.53238350750031E+01 0.29540445781069E+01 0.26034138299728E+01
 h    73    1 -.53238350750031E+01 -.29540445781069E+01 0.26034138299728E+01
 h    74    1 0.29540445781069E+01 0.53238350750031E+01 0.26034138299728E+01
 h    75    1 -.29540445781069E+01 -.53238350750031E+01 0.26034138299728E+01
 h    76    1 -.17893016489669E+01 0.70095445190746E+01 0.79097166980322E+01
 h    77    1 0.17893016489669E+01 -.70095445190746E+01 0.79097166980322E+01
 h    78    1 0.70095445190746E+01 -.17893016489669E+01 0.79097166980322E+01
 h    79    1 -.70095445190746E+01 0.17893016489669E+01 0.79097166980322E+01
 h    80    1 0.10684553869587E+01 0.87370850677358E+01 0.76336794115565E+01
 h    81    1 -.10684553869587E+01 -.87370850677358E+01 0.76336794115565E+01
 h    82    1 0.87370850677358E+01 0.10684553869587E+01 0.76336794115565E+01
 h    83    1 -.87370850677358E+01 -.10684553869587E+01 0.76336794115565E+01
 h    84    1 -.18842022679447E+00 0.71299840593612E+01 0.49628998570072E+01
 h    85    1 0.18842022679447E+00 -.71299840593612E+01 0.49628998570072E+01
 h    86    1 0.71299840593612E+01 -.18842022679447E+00 0.49628998570072E+01
 h    87    1 -.71299840593612E+01 0.18842022679447E+00 0.49628998570072E+01
 h    88    1 0.50650373227799E+01 -.17801613859757E+01 0.11962536314047E+02
 h    89    1 -.17801613859757E+01 -.50650373227799E+01 -.11962536314047E+02
 h    90    1 0.17801613859757E+01 0.50650373227799E+01 -.11962536314047E+02
 h    91    1 0.60566703670200E-02 0.30073448041507E+01 0.13921110888836E+02
 h    92    1 -.60566703670200E-02 -.30073448041507E+01 0.13921110888836E+02
 h    93    1 0.30073448041507E+01 0.60566703670200E-02 0.13921110888836E+02
 h    94    1 0.60566703670200E-02 -.30073448041507E+01 -.13921110888836E+02
 h    95    1 -.30073448041507E+01 -.60566703670200E-02 0.13921110888836E+02
 h    96    1 -.60566703670200E-02 0.30073448041507E+01 -.13921110888836E+02
 h    97    1 -.50650373227799E+01 0.17801613859757E+01 0.11962536314047E+02
 h    98    1 0.17801613859757E+01 -.50650373227799E+01 0.11962536314047E+02
 h    99    1 -.50650373227799E+01 -.17801613859757E+01 -.11962536314047E+02
 h   100    1 -.17801613859757E+01 0.50650373227799E+01 0.11962536314047E+02
 h   101    1 0.50650373227799E+01 0.17801613859757E+01 -.11962536314047E+02
 h   102    1 -.60836282944136E+01 -.11419134605675E+01 0.13237040487727E+02
 h   103    1 0.60836282944136E+01 0.11419134605675E+01 0.13237040487727E+02
 h   104    1 -.11419134605675E+01 -.60836282944136E+01 0.13237040487727E+02
 h   105    1 -.60836282944136E+01 0.11419134605675E+01 -.13237040487727E+02
 h   106    1 0.11419134605675E+01 0.60836282944136E+01 0.13237040487727E+02
 h   107    1 0.60836282944136E+01 -.11419134605675E+01 -.13237040487727E+02
[FREQ]
 -.16330000000000E+02
 -.16120000000000E+02
 0.00000000000000E+00
 0.00000000000000E+00
 0.00000000000000E+00
 0.00000000000000E+00
 0.00000000000000E+00
 0.00000000000000E+00
 0.15780000000000E+02
 0.15780000000000E+02
 0.26060000000000E+02
 0.28960000000000E+02
 0.28960000000000E+02
 0.53660000000000E+02
 0.66560000000000E+02
 0.66560000000000E+02
 0.71370000000000E+02
 0.79780000000000E+02
 0.79780000000000E+02
 0.96530000000000E+02
 0.11008000000000E+03
 0.11012000000000E+03
 0.11078000000000E+03
 0.11176000000000E+03
 0.11176000000000E+03
 0.11336000000000E+03
 0.11336000000000E+03
 0.11889000000000E+03
 0.11939000000000E+03
 0.11939000000000E+03
 0.12162000000000E+03
 0.12249000000000E+03
 0.12464000000000E+03
 0.12873000000000E+03
 0.13259000000000E+03
 0.13259000000000E+03
 0.13740000000000E+03
 0.14039000000000E+03
 0.14039000000000E+03
 0.14740000000000E+03
 0.14838000000000E+03
 0.15177000000000E+03
 0.15198000000000E+03
 0.15522000000000E+03
 0.15522000000000E+03
 0.15907000000000E+03
 0.16110000000000E+03
 0.17072000000000E+03
 0.17072000000000E+03
 0.17347000000000E+03
 0.17365000000000E+03
 0.17488000000000E+03
 0.17574000000000E+03
 0.17574000000000E+03
 0.17816000000000E+03
 0.17867000000000E+03
 0.17891000000000E+03
 0.17891000000000E+03
 0.18454000000000E+03
 0.18454000000000E+03
 0.18688000000000E+03
 0.19457000000000E+03
 0.19457000000000E+03
 0.20660000000000E+03
 0.21210000000000E+03
 0.22455000000000E+03
 0.22455000000000E+03
 0.23914000000000E+03
 0.24037000000000E+03
 0.26416000000000E+03
 0.26416000000000E+03
 0.26780000000000E+03
 0.26780000000000E+03
 0.26799000000000E+03
 0.26799000000000E+03
 0.27117000000000E+03
 0.27127000000000E+03
 0.27552000000000E+03
 0.27552000000000E+03
 0.28044000000000E+03
 0.28090000000000E+03
 0.28488000000000E+03
 0.28503000000000E+03
 0.28507000000000E+03
 0.28507000000000E+03
 0.29713000000000E+03
 0.30116000000000E+03
 0.33606000000000E+03
 0.33606000000000E+03
 0.37597000000000E+03
 0.37597000000000E+03
 0.37844000000000E+03
 0.37844000000000E+03
 0.38355000000000E+03
 0.38373000000000E+03
 0.38593000000000E+03
 0.38658000000000E+03
 0.45159000000000E+03
 0.47959000000000E+03
 0.47959000000000E+03
 0.49770000000000E+03
 0.54344000000000E+03
 0.54348000000000E+03
 0.54533000000000E+03
 0.54533000000000E+03
 0.54592000000000E+03
 0.54592000000000E+03
 0.54601000000000E+03
 0.54622000000000E+03
 0.54674000000000E+03
 0.54675000000000E+03
 0.54723000000000E+03
 0.54723000000000E+03
 0.60148000000000E+03
 0.60148000000000E+03
 0.60297000000000E+03
 0.60321000000000E+03
 0.61999000000000E+03
 0.62001000000000E+03
 0.62091000000000E+03
 0.62091000000000E+03
 0.62620000000000E+03
 0.62620000000000E+03
 0.63103000000000E+03
 0.63110000000000E+03
 0.81117000000000E+03
 0.81117000000000E+03
 0.81273000000000E+03
 0.81275000000000E+03
 0.81371000000000E+03
 0.81371000000000E+03
 0.81384000000000E+03
 0.81384000000000E+03
 0.95248000000000E+03
 0.95248000000000E+03
 0.95572000000000E+03
 0.95622000000000E+03
 0.95630000000000E+03
 0.95633000000000E+03
 0.95687000000000E+03
 0.95687000000000E+03
 0.10281000000000E+04
 0.10281000000000E+04
 0.10284400000000E+04
 0.10285500000000E+04
 0.10291100000000E+04
 0.10291100000000E+04
 0.10295600000000E+04
 0.10298400000000E+04
 0.10361100000000E+04
 0.10361100000000E+04
 0.10362300000000E+04
 0.10365100000000E+04
 0.10386600000000E+04
 0.10386600000000E+04
 0.10389000000000E+04
 0.10389000000000E+04
 0.10389200000000E+04
 0.10389200000000E+04
 0.10397800000000E+04
 0.10398100000000E+04
 0.10745900000000E+04
 0.10746200000000E+04
 0.10766300000000E+04
 0.10766300000000E+04
 0.10767400000000E+04
 0.10767400000000E+04
 0.10787800000000E+04
 0.10788200000000E+04
 0.11142400000000E+04
 0.11143500000000E+04
 0.11162400000000E+04
 0.11162400000000E+04
 0.11769700000000E+04
 0.11769800000000E+04
 0.11795500000000E+04
 0.11795500000000E+04
 0.11816100000000E+04
 0.11816100000000E+04
 0.11823200000000E+04
 0.11823700000000E+04
 0.13947400000000E+04
 0.13947800000000E+04
 0.13953700000000E+04
 0.13953700000000E+04
 0.13962800000000E+04
 0.13966700000000E+04
 0.13976600000000E+04
 0.13976600000000E+04
 0.14006300000000E+04
 0.14006300000000E+04
 0.14022900000000E+04
 0.14023500000000E+04
 0.14044700000000E+04
 0.14046200000000E+04
 0.14046200000000E+04
 0.14049500000000E+04
 0.14049500000000E+04
 0.14051100000000E+04
 0.14114700000000E+04
 0.14114800000000E+04
 0.14331300000000E+04
 0.14331800000000E+04
 0.14338100000000E+04
 0.14338100000000E+04
 0.14352500000000E+04
 0.14352500000000E+04
 0.14393400000000E+04
 0.14395300000000E+04
 0.14535600000000E+04
 0.14535600000000E+04
 0.14541600000000E+04
 0.14545100000000E+04
 0.14575000000000E+04
 0.14575200000000E+04
 0.14604300000000E+04
 0.14605700000000E+04
 0.14610000000000E+04
 0.14610000000000E+04
 0.14623700000000E+04
 0.14623700000000E+04
 0.14636100000000E+04
 0.14636700000000E+04
 0.14654100000000E+04
 0.14654100000000E+04
 0.14707300000000E+04
 0.14708800000000E+04
 0.14709000000000E+04
 0.14710200000000E+04
 0.14710200000000E+04
 0.14710300000000E+04
 0.14737600000000E+04
 0.14737600000000E+04
 0.14753800000000E+04
 0.14753900000000E+04
 0.14774200000000E+04
 0.14774200000000E+04
 0.14821500000000E+04
 0.14828800000000E+04
 0.14828800000000E+04
 0.14830900000000E+04
 0.14866600000000E+04
 0.14866600000000E+04
 0.14919500000000E+04
 0.14923100000000E+04
 0.14961400000000E+04
 0.14964000000000E+04
 0.14984400000000E+04
 0.14984400000000E+04
 0.14992000000000E+04
 0.14992000000000E+04
 0.15067500000000E+04
 0.15067900000000E+04
 0.15227400000000E+04
 0.15228000000000E+04
 0.15230100000000E+04
 0.15230100000000E+04
 0.15272700000000E+04
 0.15272700000000E+04
 0.15289700000000E+04
 0.15290300000000E+04
 0.30112700000000E+04
 0.30113300000000E+04
 0.30113400000000E+04
 0.30113400000000E+04
 0.30115400000000E+04
 0.30115400000000E+04
 0.30115800000000E+04
 0.30115800000000E+04
 0.30121400000000E+04
 0.30121400000000E+04
 0.30122900000000E+04
 0.30124800000000E+04
 0.30136900000000E+04
 0.30137000000000E+04
 0.30144600000000E+04
 0.30144600000000E+04
 0.30147300000000E+04
 0.30147300000000E+04
 0.30158600000000E+04
 0.30162300000000E+04
 0.30843900000000E+04
 0.30843900000000E+04
 0.30848700000000E+04
 0.30848700000000E+04
 0.30849800000000E+04
 0.30849800000000E+04
 0.30852100000000E+04
 0.30852300000000E+04
 0.30853500000000E+04
 0.30853500000000E+04
 0.30854600000000E+04
 0.30854600000000E+04
 0.30889600000000E+04
 0.30889600000000E+04
 0.30890900000000E+04
 0.30890900000000E+04
 0.30924400000000E+04
 0.30924400000000E+04
 0.30926800000000E+04
 0.30928300000000E+04
 0.31248000000000E+04
 0.31248100000000E+04
 0.31248400000000E+04
 0.31248400000000E+04
 0.31251900000000E+04
 0.31251900000000E+04
 0.31253000000000E+04
 0.31253500000000E+04
 0.31312400000000E+04
 0.31312400000000E+04
 0.31324400000000E+04
 0.31324400000000E+04
 0.31336500000000E+04
 0.31337400000000E+04
 0.31337400000000E+04
 0.31337800000000E+04
 0.31361100000000E+04
 0.31361100000000E+04
 0.31383800000000E+04
 0.31383900000000E+04
[INT]
 0.00000000000000E+00
 0.00000000000000E+00
 0.00000000000000E+00
 0.00000000000000E+00
 0.00000000000000E+00
 0.00000000000000E+00
 0.00000000000000E+00
 0.00000000000000E+00
 0.48320000000000E-01
 0.48320000000000E-01
 0.00000000000000E+00
 0.27612000000000E+00
 0.27612000000000E+00
 0.00000000000000E+00
 0.13657000000000E+00
 0.13657000000000E+00
 0.00000000000000E+00
 0.36936000000000E+00
 0.36936000000000E+00
 0.24646100000000E+01
 0.00000000000000E+00
 0.00000000000000E+00
 0.00000000000000E+00
 0.33500000000000E-02
 0.33500000000000E-02
 0.40947000000000E+00
 0.40947000000000E+00
 0.45010000000000E-01
 0.37415000000000E+00
 0.37415000000000E+00
 0.00000000000000E+00
 0.50303400000000E+01
 0.00000000000000E+00
 0.00000000000000E+00
 0.78850000000000E-01
 0.78850000000000E-01
 0.00000000000000E+00
 0.10000000000000E-03
 0.10000000000000E-03
 0.00000000000000E+00
 0.89939700000000E+01
 0.00000000000000E+00
 0.00000000000000E+00
 0.27679000000000E+00
 0.27679000000000E+00
 0.00000000000000E+00
 0.00000000000000E+00
 0.68800000000000E-02
 0.68800000000000E-02
 0.00000000000000E+00
 0.60090000000000E-01
 0.00000000000000E+00
 0.25776000000000E+00
 0.25776000000000E+00
 0.00000000000000E+00
 0.00000000000000E+00
 0.30900000000000E+00
 0.30900000000000E+00
 0.47840000000000E-01
 0.47840000000000E-01
 0.13775520000000E+02
 0.59380000000000E-01
 0.59380000000000E-01
 0.00000000000000E+00
 0.10832030000000E+02
 0.29600000000000E-02
 0.29600000000000E-02
 0.47062380000000E+02
 0.00000000000000E+00
 0.00000000000000E+00
 0.00000000000000E+00
 0.53320000000000E-01
 0.53320000000000E-01
 0.72412000000000E+00
 0.72412000000000E+00
 0.99111000000000E+00
 0.00000000000000E+00
 0.98170000000000E-01
 0.98170000000000E-01
 0.20187000000000E+01
 0.00000000000000E+00
 0.00000000000000E+00
 0.00000000000000E+00
 0.19917000000000E+00
 0.19917000000000E+00
 0.99878220000000E+02
 0.00000000000000E+00
 0.94638430000000E+02
 0.94638430000000E+02
 0.14230000000000E-01
 0.14230000000000E-01
 0.29352600000000E+01
 0.29352600000000E+01
 0.00000000000000E+00
 0.00000000000000E+00
 0.29767150000000E+02
 0.00000000000000E+00
 0.00000000000000E+00
 0.37693310000000E+02
 0.37693310000000E+02
 0.28702187000000E+03
 0.00000000000000E+00
 0.00000000000000E+00
 0.86200000000000E-01
 0.86200000000000E-01
 0.11200000000000E-02
 0.11200000000000E-02
 0.00000000000000E+00
 0.66526000000000E+00
 0.00000000000000E+00
 0.00000000000000E+00
 0.14410000000000E-01
 0.14410000000000E-01
 0.58998400000000E+01
 0.58998400000000E+01
 0.46762300000000E+01
 0.00000000000000E+00
 0.00000000000000E+00
 0.00000000000000E+00
 0.31872000000000E+00
 0.31872000000000E+00
 0.17030000000000E-01
 0.17030000000000E-01
 0.87247000000000E+00
 0.00000000000000E+00
 0.73370000000000E-01
 0.73370000000000E-01
 0.00000000000000E+00
 0.71600000000000E-01
 0.00000000000000E+00
 0.00000000000000E+00
 0.19596200000000E+01
 0.19596200000000E+01
 0.29722000000000E+00
 0.29722000000000E+00
 0.00000000000000E+00
 0.40279600000000E+01
 0.00000000000000E+00
 0.00000000000000E+00
 0.13741000000000E+00
 0.13741000000000E+00
 0.25905840000000E+02
 0.25905840000000E+02
 0.00000000000000E+00
 0.00000000000000E+00
 0.64436700000000E+01
 0.64436700000000E+01
 0.25988660000000E+02
 0.00000000000000E+00
 0.40344400000000E+01
 0.40344400000000E+01
 0.31389610000000E+02
 0.00000000000000E+00
 0.67848000000000E+00
 0.67848000000000E+00
 0.00000000000000E+00
 0.00000000000000E+00
 0.15200000000000E-02
 0.15200000000000E-02
 0.00000000000000E+00
 0.25732000000000E+00
 0.00000000000000E+00
 0.00000000000000E+00
 0.10270000000000E-01
 0.10270000000000E-01
 0.31591200000000E+01
 0.31591200000000E+01
 0.91891200000000E+01
 0.00000000000000E+00
 0.00000000000000E+00
 0.00000000000000E+00
 0.45920000000000E-01
 0.45920000000000E-01
 0.00000000000000E+00
 0.00000000000000E+00
 0.13743000000000E+00
 0.13743000000000E+00
 0.65520000000000E-01
 0.65520000000000E-01
 0.21240000000000E-01
 0.00000000000000E+00
 0.00000000000000E+00
 0.00000000000000E+00
 0.27487000000000E+00
 0.27487000000000E+00
 0.00000000000000E+00
 0.44444000000000E+00
 0.88339000000000E+00
 0.88339000000000E+00
 0.77608000000000E+00
 0.77608000000000E+00
 0.00000000000000E+00
 0.00000000000000E+00
 0.84641300000000E+01
 0.44147500000000E+01
 0.44147500000000E+01
 0.24895400000000E+01
 0.24895400000000E+01
 0.00000000000000E+00
 0.22279400000000E+01
 0.00000000000000E+00
 0.00000000000000E+00
 0.00000000000000E+00
 0.35873000000000E+00
 0.35873000000000E+00
 0.28915000000000E+00
 0.28915000000000E+00
 0.17016800000000E+01
 0.00000000000000E+00
 0.18601310000000E+02
 0.18601310000000E+02
 0.84264500000000E+01
 0.00000000000000E+00
 0.00000000000000E+00
 0.00000000000000E+00
 0.00000000000000E+00
 0.00000000000000E+00
 0.43194000000000E+00
 0.43194000000000E+00
 0.14482720000000E+02
 0.14482720000000E+02
 0.28621980000000E+02
 0.00000000000000E+00
 0.12277550000000E+02
 0.12277550000000E+02
 0.25299000000000E+01
 0.00000000000000E+00
 0.00000000000000E+00
 0.40800000000000E+00
 0.40800000000000E+00
 0.00000000000000E+00
 0.58915000000000E+00
 0.58915000000000E+00
 0.00000000000000E+00
 0.00000000000000E+00
 0.57820800000000E+01
 0.57820800000000E+01
 0.29962290000000E+02
 0.72800000000000E-02
 0.72800000000000E-02
 0.00000000000000E+00
 0.51082280000000E+02
 0.51082280000000E+02
 0.28705770000000E+02
 0.00000000000000E+00
 0.00000000000000E+00
 0.00000000000000E+00
 0.59378000000000E+00
 0.59378000000000E+00
 0.36318000000000E+00
 0.36318000000000E+00
 0.00000000000000E+00
 0.36012500000000E+01
 0.00000000000000E+00
 0.00000000000000E+00
 0.64702800000000E+01
 0.64702800000000E+01
 0.10490900000000E+01
 0.10490900000000E+01
 0.51107300000000E+01
 0.00000000000000E+00
 0.00000000000000E+00
 0.00000000000000E+00
 0.89076670000000E+02
 0.89076670000000E+02
 0.36015000000000E+01
 0.36015000000000E+01
 0.00000000000000E+00
 0.15899190000000E+02
 0.96043450000000E+02
 0.96043450000000E+02
 0.45697190000000E+02
 0.00000000000000E+00
 0.00000000000000E+00
 0.00000000000000E+00
 0.53155320000000E+02
 0.53155320000000E+02
 0.58040900000000E+02
 0.58040900000000E+02
 0.29008387000000E+03
 0.00000000000000E+00
 0.00000000000000E+00
 0.00000000000000E+00
 0.28558200000000E+01
 0.28558200000000E+01
 0.31184480000000E+02
 0.31184480000000E+02
 0.94708900000000E+01
 0.00000000000000E+00
 0.00000000000000E+00
 0.00000000000000E+00
 0.61938470000000E+02
 0.61938470000000E+02
 0.84806400000000E+01
 0.84806400000000E+01
 0.20447800000000E+01
 0.00000000000000E+00
 0.20761700000000E+02
 0.20761700000000E+02
 0.49618620000000E+02
 0.00000000000000E+00
 0.00000000000000E+00
 0.00000000000000E+00
 0.32099400000000E+01
 0.32099400000000E+01
 0.31720300000000E+01
 0.31720300000000E+01
 0.93184340000000E+02
 0.00000000000000E+00
 0.00000000000000E+00
 0.00000000000000E+00
 0.42590300000000E+01
 0.42590300000000E+01
 0.00000000000000E+00
 0.10232640000000E+02
 0.10232640000000E+02
 0.00000000000000E+00
 0.29282880000000E+02
 0.29282880000000E+02
 0.64143450000000E+02
 0.00000000000000E+00
[FR-COORD]
 mo 0.00000000000000E+00 0.00000000000000E+00 0.00000000000000E+00
 y  0.00000000000000E+00 0.00000000000000E+00 -.68198226912935E+01
 s  0.23339320529732E+01 0.23339320529732E+01 -.25575078964304E+01
 s  -.23339320529732E+01 -.23339320529732E+01 -.25575078964304E+01
 s  0.23339320529732E+01 -.23339320529732E+01 0.25575078964304E+01
 s  -.23339320529732E+01 0.23339320529732E+01 0.25575078964304E+01
 c  0.46906381248084E+01 -.15992283914300E+01 -.77320739351432E+01
 c  0.35518958165041E+01 -.35518958165041E+01 -.62504243738237E+01
 c  0.15992283914300E+01 -.46906381248084E+01 -.77320739351432E+01
 c  0.15564579080902E+01 -.34718890586989E+01 -.10147214248526E+02
 c  0.34718890586989E+01 -.15564579080902E+01 -.10147214248526E+02
 c  -.15992283914300E+01 0.46906381248084E+01 -.77320739351432E+01
 c  -.35518958165041E+01 0.35518958165041E+01 -.62504243738237E+01
 c  -.46906381248084E+01 0.15992283914300E+01 -.77320739351432E+01
 c  -.34718890586989E+01 0.15564579080902E+01 -.10147214248526E+02
 c  -.15564579080902E+01 0.34718890586989E+01 -.10147214248526E+02
 c  0.91205061943110E-01 -.69965623152122E+01 -.70180285774004E+01
 c  0.14853075950343E+00 -.44366126913247E+01 -.12422270774163E+02
 c  0.44805852523522E+01 -.44805852523522E+01 -.37338402554023E+01
 c  0.44366126913247E+01 -.14853075950343E+00 -.12422270774163E+02
 c  0.69965623152122E+01 -.91205061943110E-01 -.70180285774004E+01
 c  -.14853075950343E+00 0.44366126913247E+01 -.12422270774163E+02
 c  -.44805852523522E+01 0.44805852523522E+01 -.37338402554023E+01
 c  -.69965623152122E+01 0.91205061943100E-01 -.70180285774004E+01
 c  -.44366126913247E+01 0.14853075950343E+00 -.12422270774163E+02
 h  0.59458162895241E+01 -.59458162895241E+01 -.39973161261493E+01
 h  0.29540445781069E+01 -.53238350750031E+01 -.26034138299728E+01
 h  -.29540445781069E+01 0.53238350750031E+01 -.26034138299728E+01
 h  -.59458162895241E+01 0.59458162895241E+01 -.39973161261493E+01
 h  0.53238350750031E+01 -.29540445781069E+01 -.26034138299728E+01
 h  -.53238350750031E+01 0.29540445781069E+01 -.26034138299728E+01
 h  0.70095445190746E+01 0.17893016489669E+01 -.79097166980322E+01
 h  0.87370850677358E+01 -.10684553869587E+01 -.76336794115565E+01
 h  0.71299840593612E+01 0.18842022679447E+00 -.49628998570072E+01
 h  -.70095445190746E+01 -.17893016489669E+01 -.79097166980322E+01
 h  -.87370850677358E+01 0.10684553869587E+01 -.76336794115565E+01
 h  -.71299840593612E+01 -.18842022679447E+00 -.49628998570072E+01
 c  -.91205061943100E-01 0.69965623152122E+01 -.70180285774004E+01
 h  -.10684553869587E+01 0.87370850677358E+01 -.76336794115565E+01
 h  0.17893016489669E+01 0.70095445190746E+01 -.79097166980322E+01
 h  0.18842022679447E+00 0.71299840593612E+01 -.49628998570072E+01
 h  0.10684553869587E+01 -.87370850677358E+01 -.76336794115565E+01
 h  -.17893016489669E+01 -.70095445190746E+01 -.79097166980322E+01
 h  0.30073448041507E+01 -.60566703670200E-02 -.13921110888836E+02
 h  -.30073448041507E+01 0.60566703670200E-02 -.13921110888836E+02
 h  -.11419134605675E+01 0.60836282944136E+01 -.13237040487727E+02
 h  0.11419134605675E+01 -.60836282944136E+01 -.13237040487727E+02
 h  -.18842022679447E+00 -.71299840593612E+01 -.49628998570072E+01
 y  0.00000000000000E+00 0.00000000000000E+00 0.68198226912935E+01
 c  0.15992283914300E+01 0.46906381248084E+01 0.77320739351432E+01
 c  -.15992283914300E+01 -.46906381248084E+01 0.77320739351432E+01
 c  0.46906381248084E+01 0.15992283914300E+01 0.77320739351432E+01
 c  -.46906381248084E+01 -.15992283914300E+01 0.77320739351432E+01
 c  0.35518958165041E+01 0.35518958165041E+01 0.62504243738237E+01
 c  -.35518958165041E+01 -.35518958165041E+01 0.62504243738237E+01
 c  0.34718890586989E+01 0.15564579080902E+01 0.10147214248526E+02
 c  -.34718890586989E+01 -.15564579080902E+01 0.10147214248526E+02
 c  0.15564579080902E+01 0.34718890586989E+01 0.10147214248526E+02
 c  -.15564579080902E+01 -.34718890586989E+01 0.10147214248526E+02
 c  0.69965623152122E+01 0.91205061943110E-01 0.70180285774004E+01
 c  -.69965623152122E+01 -.91205061943100E-01 0.70180285774004E+01
 c  0.91205061943110E-01 0.69965623152122E+01 0.70180285774004E+01
 c  -.91205061943100E-01 -.69965623152122E+01 0.70180285774004E+01
 c  0.44366126913247E+01 0.14853075950343E+00 0.12422270774163E+02
 c  -.44366126913247E+01 -.14853075950343E+00 0.12422270774163E+02
 c  0.14853075950343E+00 0.44366126913247E+01 0.12422270774163E+02
 c  -.14853075950343E+00 -.44366126913247E+01 0.12422270774163E+02
 c  0.44805852523522E+01 0.44805852523522E+01 0.37338402554023E+01
 c  -.44805852523522E+01 -.44805852523522E+01 0.37338402554023E+01
 h  0.59458162895241E+01 0.59458162895241E+01 0.39973161261493E+01
 h  -.59458162895241E+01 -.59458162895241E+01 0.39973161261493E+01
 h  0.53238350750031E+01 0.29540445781069E+01 0.26034138299728E+01
 h  -.53238350750031E+01 -.29540445781069E+01 0.26034138299728E+01
 h  0.29540445781069E+01 0.53238350750031E+01 0.26034138299728E+01
 h  -.29540445781069E+01 -.53238350750031E+01 0.26034138299728E+01
 h  -.17893016489669E+01 0.70095445190746E+01 0.79097166980322E+01
 h  0.17893016489669E+01 -.70095445190746E+01 0.79097166980322E+01
 h  0.70095445190746E+01 -.17893016489669E+01 0.79097166980322E+01
 h  -.70095445190746E+01 0.17893016489669E+01 0.79097166980322E+01
 h  0.10684553869587E+01 0.87370850677358E+01 0.76336794115565E+01
 h  -.10684553869587E+01 -.87370850677358E+01 0.76336794115565E+01
 h  0.87370850677358E+01 0.10684553869587E+01 0.76336794115565E+01
 h  -.87370850677358E+01 -.10684553869587E+01 0.76336794115565E+01
 h  -.18842022679447E+00 0.71299840593612E+01 0.49628998570072E+01
 h  0.18842022679447E+00 -.71299840593612E+01 0.49628998570072E+01
 h  0.71299840593612E+01 -.18842022679447E+00 0.49628998570072E+01
 h  -.71299840593612E+01 0.18842022679447E+00 0.49628998570072E+01
 h  0.50650373227799E+01 -.17801613859757E+01 0.11962536314047E+02
 h  -.17801613859757E+01 -.50650373227799E+01 -.11962536314047E+02
 h  0.17801613859757E+01 0.50650373227799E+01 -.11962536314047E+02
 h  0.60566703670200E-02 0.30073448041507E+01 0.13921110888836E+02
 h  -.60566703670200E-02 -.30073448041507E+01 0.13921110888836E+02
 h  0.30073448041507E+01 0.60566703670200E-02 0.13921110888836E+02
 h  0.60566703670200E-02 -.30073448041507E+01 -.13921110888836E+02
 h  -.30073448041507E+01 -.60566703670200E-02 0.13921110888836E+02
 h  -.60566703670200E-02 0.30073448041507E+01 -.13921110888836E+02
 h  -.50650373227799E+01 0.17801613859757E+01 0.11962536314047E+02
 h  0.17801613859757E+01 -.50650373227799E+01 0.11962536314047E+02
 h  -.50650373227799E+01 -.17801613859757E+01 -.11962536314047E+02
 h  -.17801613859757E+01 0.50650373227799E+01 0.11962536314047E+02
 h  0.50650373227799E+01 0.17801613859757E+01 -.11962536314047E+02
 h  -.60836282944136E+01 -.11419134605675E+01 0.13237040487727E+02
 h  0.60836282944136E+01 0.11419134605675E+01 0.13237040487727E+02
 h  -.11419134605675E+01 -.60836282944136E+01 0.13237040487727E+02
 h  -.60836282944136E+01 0.11419134605675E+01 -.13237040487727E+02
 h  0.11419134605675E+01 0.60836282944136E+01 0.13237040487727E+02
 h  0.60836282944136E+01 -.11419134605675E+01 -.13237040487727E+02
[FR-NORM-COORD]
 vibration    1
 0.00000000000000E+00 0.00000000000000E+00 0.00000000000000E+00
 0.00000000000000E+00 0.00000000000000E+00 0.00000000000000E+00
 0.34255960000000E-03 -.34255960000000E-03 0.00000000000000E+00
 -.34255960000000E-03 0.34255960000000E-03 0.00000000000000E+00