[Molden Format]
[Title]
                                                                                
[Atoms] AU
 mo    1   42 0.00000000000000E+00 0.00000000000000E+00 0.00000000000000E+00
 y     2   39 0.00000000000000E+00 0.00000000000000E+00 -.64794166553825E+01
 s     3   16 0.24110302901342E+01 0.23606112542021E+01 -.25630816763216E+01
 s     4   16 -.24110302901342E+01 -.23606112542021E+01 -.25630816763216E+01
 s     5   16 0.24110302901342E+01 -.23606112542021E+01 0.25630816763216E+01
 s     6   16 -.24110302901342E+01 0.23606112542021E+01 0.25630816763216E+01
 c     7    6 0.45969939859260E+01 -.20192723948410E+01 -.70244310644191E+01
 c     8    6 0.30628807934263E+01 -.39999932201229E+01 -.60428803498205E+01
 c     9    6 0.12342662402610E+01 -.46440480639974E+01 -.79190754952656E+01
 c    10    6 0.16759176991852E+01 -.30999756837719E+01 -.10088974315767E+02
 c    11    6 0.37411668126712E+01 -.14493466020603E+01 -.95215076652147E+01
 c    12    6 -.12342662402610E+01 0.46440480639974E+01 -.79190754952656E+01
 c    13    6 -.30628807934263E+01 0.39999932201229E+01 -.60428803498205E+01
 c    14    6 -.45969939859260E+01 0.20192723948410E+01 -.70244310644191E+01
 c    15    6 -.37411668126712E+01 0.14493466020603E+01 -.95215076652147E+01
 c    16    6 -.16759176991852E+01 0.30999756837719E+01 -.10088974315767E+02
 c    17    6 -.68393307519580E+00 -.67299293902846E+01 -.77043723962361E+01
 c    18    6 0.51422594843778E+00 -.35303295185200E+01 -.12643164013450E+02
 c    19    6 0.34572081434388E+01 -.53360638299387E+01 -.35749861534310E+01
 c    20    6 0.50811522512093E+01 0.28912971423356E+00 -.11328138928775E+02
 c    21    6 0.68963147048340E+01 -.91841346100471E+00 -.57739345853688E+01
 c    22    6 -.51422594843778E+00 0.35303295185200E+01 -.12643164013450E+02
 c    23    6 -.34572081434388E+01 0.53360638299387E+01 -.35749861534310E+01
 c    24    6 -.68963147048340E+01 0.91841346100471E+00 -.57739345853688E+01
 c    25    6 -.50811522512093E+01 -.28912971423355E+00 -.11328138928775E+02
 h    26    1 0.47250029117125E+01 -.69797312348545E+01 -.38218172794634E+01
 h    27    1 0.16652453210503E+01 -.60181307742302E+01 -.27737931993513E+01
 h    28    1 -.16652453210503E+01 0.60181307742302E+01 -.27737931993513E+01
 h    29    1 -.47250029117125E+01 0.69797312348545E+01 -.38218172794634E+01
 h    30    1 0.43089585753941E+01 -.40877268102478E+01 -.21504915336376E+01
 h    31    1 -.43089585753941E+01 0.40877268102478E+01 -.21504915336376E+01
 h    32    1 0.72113962474418E+01 0.10585190905771E+01 -.63393872104516E+01
 h    33    1 0.86106828063460E+01 -.19988582306469E+01 -.62900204136906E+01
 h    34    1 0.67174771855270E+01 -.94224785994229E+00 -.37042637432756E+01
 h    35    1 -.72113962474418E+01 -.10585190905771E+01 -.63393872104516E+01
 h    36    1 -.86106828063460E+01 0.19988582306469E+01 -.62900204136906E+01
 h    37    1 -.67174771855270E+01 0.94224785994229E+00 -.37042637432756E+01
 c    38    6 0.68393307519580E+00 0.67299293902846E+01 -.77043723962361E+01
 h    39    1 -.10853096554411E+00 0.85666672747009E+01 -.83111171835448E+01
 h    40    1 0.23580784636248E+01 0.63645653343884E+01 -.88875091376015E+01
 h    41    1 0.13405881663355E+01 0.69404162507858E+01 -.57423381517953E+01
 h    42    1 0.10853096554411E+00 -.85666672747009E+01 -.83111171835448E+01
 h    43    1 -.23580784636248E+01 -.63645653343884E+01 -.88875091376015E+01
 h    44    1 0.39999157058839E+01 0.55768288946173E+00 -.13079530431174E+02
 h    45    1 -.39999157058839E+01 -.55768288946173E+00 -.13079530431174E+02
 h    46    1 -.16057296548726E+01 0.49577618967105E+01 -.13711892722053E+02
 h    47    1 0.16057296548726E+01 -.49577618967105E+01 -.13711892722053E+02
 h    48    1 -.13405881663355E+01 -.69404162507858E+01 -.57423381517953E+01
 y    49   39 0.00000000000000E+00 0.00000000000000E+00 0.64794166553825E+01
 c    50    6 0.12342662402610E+01 0.46440480639974E+01 0.79190754952656E+01
 c    51    6 -.12342662402610E+01 -.46440480639974E+01 0.79190754952656E+01
 c    52    6 0.45969939859260E+01 0.20192723948410E+01 0.70244310644191E+01
 c    53    6 -.45969939859260E+01 -.20192723948410E+01 0.70244310644191E+01
 c    54    6 0.30628807934263E+01 0.39999932201229E+01 0.60428803498205E+01
 c    55    6 -.30628807934263E+01 -.39999932201229E+01 0.60428803498205E+01
 c    56    6 0.37411668126712E+01 0.14493466020603E+01 0.95215076652147E+01
 c    57    6 -.37411668126712E+01 -.14493466020603E+01 0.95215076652147E+01
 c    58    6 0.16759176991852E+01 0.30999756837719E+01 0.10088974315767E+02
 c    59    6 -.16759176991852E+01 -.30999756837719E+01 0.10088974315767E+02
 c    60    6 0.68963147048340E+01 0.91841346100471E+00 0.57739345853688E+01
 c    61    6 -.68963147048340E+01 -.91841346100471E+00 0.57739345853688E+01
 c    62    6 -.68393307519580E+00 0.67299293902846E+01 0.77043723962361E+01
 c    63    6 0.68393307519580E+00 -.67299293902846E+01 0.77043723962361E+01
 c    64    6 0.50811522512093E+01 -.28912971423356E+00 0.11328138928775E+02
 c    65    6 -.50811522512093E+01 0.28912971423355E+00 0.11328138928775E+02
 c    66    6 0.51422594843778E+00 0.35303295185200E+01 0.12643164013450E+02
 c    67    6 -.51422594843778E+00 -.35303295185200E+01 0.12643164013450E+02
 c    68    6 0.34572081434388E+01 0.53360638299387E+01 0.35749861534310E+01
 c    69    6 -.34572081434388E+01 -.53360638299387E+01 0.35749861534310E+01
 h    70    1 0.47250029117125E+01 0.69797312348545E+01 0.38218172794634E+01
 h    71    1 -.47250029117125E+01 -.69797312348545E+01 0.38218172794634E+01
 h    72    1 0.43089585753941E+01 0.40877268102478E+01 0.21504915336376E+01
 h    73    1 -.43089585753941E+01 -.40877268102478E+01 0.21504915336376E+01
 h    74    1 0.16652453210503E+01 0.60181307742302E+01 0.27737931993513E+01
 h    75    1 -.16652453210503E+01 -.60181307742302E+01 0.27737931993513E+01
 h    76    1 -.23580784636248E+01 0.63645653343884E+01 0.88875091376015E+01
 h    77    1 0.23580784636248E+01 -.63645653343884E+01 0.88875091376015E+01
 h    78    1 0.72113962474418E+01 -.10585190905771E+01 0.63393872104516E+01
 h    79    1 -.72113962474418E+01 0.10585190905771E+01 0.63393872104516E+01
 h    80    1 0.10853096554411E+00 0.85666672747009E+01 0.83111171835448E+01
 h    81    1 -.10853096554411E+00 -.85666672747009E+01 0.83111171835448E+01
 h    82    1 0.86106828063460E+01 0.19988582306469E+01 0.62900204136906E+01
 h    83    1 -.86106828063460E+01 -.19988582306469E+01 0.62900204136906E+01
 h    84    1 -.13405881663355E+01 0.69404162507858E+01 0.57423381517953E+01
 h    85    1 0.13405881663355E+01 -.69404162507858E+01 0.57423381517953E+01
 h    86    1 0.67174771855270E+01 0.94224785994229E+00 0.37042637432756E+01
 h    87    1 -.67174771855270E+01 -.94224785994229E+00 0.37042637432756E+01
 h    88    1 0.54295498317272E+01 -.21742739549886E+01 0.10509244723424E+02
 h    89    1 -.14338697130662E+01 -.42392112348776E+01 -.12501942740001E+02
 h    90    1 0.14338697130662E+01 0.42392112348776E+01 -.12501942740001E+02
 h    91    1 0.47491539620797E+00 0.18057519299405E+01 0.13801074942115E+02
 h    92    1 -.47491539620797E+00 -.18057519299405E+01 0.13801074942115E+02
 h    93    1 0.39999157058839E+01 -.55768288946173E+00 0.13079530431174E+02
 h    94    1 0.47491539620797E+00 -.18057519299405E+01 -.13801074942115E+02
 h    95    1 -.39999157058839E+01 0.55768288946173E+00 0.13079530431174E+02
 h    96    1 -.47491539620797E+00 0.18057519299405E+01 -.13801074942115E+02
 h    97    1 -.54295498317272E+01 0.21742739549886E+01 0.10509244723424E+02
 h    98    1 0.14338697130662E+01 -.42392112348776E+01 0.12501942740001E+02
 h    99    1 -.54295498317272E+01 -.21742739549886E+01 -.10509244723424E+02
 h   100    1 -.14338697130662E+01 0.42392112348776E+01 0.12501942740001E+02
 h   101    1 0.54295498317272E+01 0.21742739549886E+01 -.10509244723424E+02
 h   102    1 -.69471259007406E+01 -.48507854277405E+00 0.11861842105349E+02
 h   103    1 0.69471259007406E+01 0.48507854277405E+00 0.11861842105349E+02
 h   104    1 -.16057296548726E+01 -.49577618967105E+01 0.13711892722053E+02
 h   105    1 -.69471259007406E+01 0.48507854277405E+00 -.11861842105349E+02
 h   106    1 0.16057296548726E+01 0.49577618967105E+01 0.13711892722053E+02
 h   107    1 0.69471259007406E+01 -.48507854277405E+00 -.11861842105349E+02
[FREQ]
 -.23650000000000E+02
 -.15690000000000E+02
 0.00000000000000E+00
 0.00000000000000E+00
 0.00000000000000E+00
 0.00000000000000E+00
 0.00000000000000E+00
 0.00000000000000E+00
 0.16170000000000E+02
 0.20820000000000E+02
 0.26380000000000E+02
 0.31990000000000E+02
 0.34520000000000E+02
 0.53940000000000E+02
 0.67490000000000E+02
 0.70570000000000E+02
 0.87200000000000E+02
 0.87720000000000E+02
 0.90440000000000E+02
 0.97110000000000E+02
 0.98660000000000E+02
 0.10434000000000E+03
 0.10794000000000E+03
 0.10908000000000E+03
 0.11126000000000E+03
 0.11334000000000E+03
 0.11582000000000E+03
 0.12308000000000E+03
 0.12545000000000E+03
 0.12561000000000E+03
 0.12914000000000E+03
 0.12930000000000E+03
 0.13043000000000E+03
 0.13267000000000E+03
 0.13272000000000E+03
 0.13321000000000E+03
 0.13429000000000E+03
 0.13898000000000E+03
 0.14024000000000E+03
 0.14111000000000E+03
 0.14233000000000E+03
 0.14292000000000E+03
 0.14509000000000E+03
 0.14627000000000E+03
 0.14674000000000E+03
 0.15174000000000E+03
 0.15779000000000E+03
 0.15845000000000E+03
 0.15938000000000E+03
 0.16086000000000E+03
 0.16203000000000E+03
 0.16540000000000E+03
 0.17085000000000E+03
 0.18380000000000E+03
 0.18667000000000E+03
 0.18828000000000E+03
 0.18879000000000E+03
 0.18936000000000E+03
 0.19075000000000E+03
 0.19105000000000E+03
 0.19678000000000E+03
 0.20496000000000E+03
 0.20789000000000E+03
 0.21600000000000E+03
 0.21636000000000E+03
 0.23359000000000E+03
 0.23650000000000E+03
 0.25084000000000E+03
 0.26270000000000E+03
 0.26321000000000E+03
 0.26467000000000E+03
 0.26488000000000E+03
 0.26557000000000E+03
 0.27304000000000E+03
 0.27316000000000E+03
 0.27564000000000E+03
 0.27578000000000E+03
 0.27664000000000E+03
 0.27668000000000E+03
 0.27919000000000E+03
 0.27927000000000E+03
 0.27970000000000E+03
 0.27975000000000E+03
 0.28165000000000E+03
 0.28565000000000E+03
 0.29508000000000E+03
 0.30197000000000E+03
 0.32944000000000E+03
 0.32949000000000E+03
 0.37384000000000E+03
 0.37392000000000E+03
 0.37926000000000E+03
 0.37932000000000E+03
 0.38062000000000E+03
 0.38099000000000E+03
 0.38746000000000E+03
 0.38782000000000E+03
 0.42056000000000E+03
 0.44614000000000E+03
 0.45162000000000E+03
 0.45424000000000E+03
 0.54740000000000E+03
 0.54747000000000E+03
 0.54786000000000E+03
 0.54791000000000E+03
 0.54819000000000E+03
 0.54831000000000E+03
 0.54938000000000E+03
 0.54943000000000E+03
 0.55021000000000E+03
 0.55023000000000E+03
 0.55084000000000E+03
 0.55089000000000E+03
 0.60149000000000E+03
 0.60152000000000E+03
 0.60295000000000E+03
 0.60316000000000E+03
 0.62535000000000E+03
 0.62537000000000E+03
 0.62567000000000E+03
 0.62570000000000E+03
 0.63734000000000E+03
 0.63735000000000E+03
 0.63972000000000E+03
 0.63977000000000E+03
 0.81580000000000E+03
 0.81588000000000E+03
 0.81677000000000E+03
 0.81677000000000E+03
 0.81737000000000E+03
 0.81752000000000E+03
 0.81803000000000E+03
 0.81817000000000E+03
 0.95358000000000E+03
 0.95368000000000E+03
 0.95377000000000E+03
 0.95385000000000E+03
 0.95982000000000E+03
 0.95996000000000E+03
 0.96021000000000E+03
 0.96029000000000E+03
 0.10286000000000E+04
 0.10288100000000E+04
 0.10299800000000E+04
 0.10301600000000E+04
 0.10321600000000E+04
 0.10324600000000E+04
 0.10324800000000E+04
 0.10328100000000E+04
 0.10369500000000E+04
 0.10370000000000E+04
 0.10377400000000E+04
 0.10382500000000E+04
 0.10438000000000E+04
 0.10438400000000E+04
 0.10440300000000E+04
 0.10441300000000E+04
 0.10465900000000E+04
 0.10466200000000E+04
 0.10470400000000E+04
 0.10472100000000E+04
 0.10753600000000E+04
 0.10757500000000E+04
 0.10758500000000E+04
 0.10762000000000E+04
 0.10791600000000E+04
 0.10792400000000E+04
 0.10800300000000E+04
 0.10801400000000E+04
 0.11134100000000E+04
 0.11135800000000E+04
 0.11140200000000E+04
 0.11143100000000E+04
 0.11853400000000E+04
 0.11853500000000E+04
 0.11857100000000E+04
 0.11857500000000E+04
 0.11885100000000E+04
 0.11885900000000E+04
 0.11891300000000E+04
 0.11891600000000E+04
 0.13892900000000E+04
 0.13893000000000E+04
 0.13930000000000E+04
 0.13930500000000E+04
 0.13951800000000E+04
 0.13951900000000E+04
 0.13954100000000E+04
 0.13955700000000E+04
 0.13962500000000E+04
 0.13964300000000E+04
 0.13981400000000E+04
 0.13982000000000E+04
 0.14002500000000E+04
 0.14004700000000E+04
 0.14025800000000E+04
 0.14031600000000E+04
 0.14038800000000E+04
 0.14040100000000E+04
 0.14082100000000E+04
 0.14084100000000E+04
 0.14326900000000E+04
 0.14328500000000E+04
 0.14337400000000E+04
 0.14337600000000E+04
 0.14411500000000E+04
 0.14411800000000E+04
 0.14460200000000E+04
 0.14461700000000E+04
 0.14570700000000E+04
 0.14574100000000E+04
 0.14577000000000E+04
 0.14578700000000E+04
 0.14581600000000E+04
 0.14585700000000E+04
 0.14608300000000E+04
 0.14610200000000E+04
 0.14622300000000E+04
 0.14625700000000E+04
 0.14640200000000E+04
 0.14640800000000E+04
 0.14653100000000E+04
 0.14653700000000E+04
 0.14656200000000E+04
 0.14657700000000E+04
 0.14660800000000E+04
 0.14663100000000E+04
 0.14676000000000E+04
 0.14681900000000E+04
 0.14717200000000E+04
 0.14721800000000E+04
 0.14731600000000E+04
 0.14733000000000E+04
 0.14746800000000E+04
 0.14751400000000E+04
 0.14761700000000E+04
 0.14762300000000E+04
 0.14813500000000E+04
 0.14817800000000E+04
 0.14849700000000E+04
 0.14850100000000E+04
 0.14880000000000E+04
 0.14881100000000E+04
 0.14882600000000E+04
 0.14884900000000E+04
 0.14952000000000E+04
 0.14955500000000E+04
 0.14976000000000E+04
 0.14977000000000E+04
 0.15026800000000E+04
 0.15027000000000E+04
 0.15086200000000E+04
 0.15086400000000E+04
 0.15300600000000E+04
 0.15300900000000E+04
 0.15310500000000E+04
 0.15310700000000E+04
 0.15394200000000E+04
 0.15394800000000E+04
 0.15395000000000E+04
 0.15395100000000E+04
 0.29950600000000E+04
 0.29950900000000E+04
 0.29952900000000E+04
 0.29953200000000E+04
 0.29961600000000E+04
 0.29961900000000E+04
 0.29961900000000E+04
 0.29962500000000E+04
 0.29976400000000E+04
 0.29977200000000E+04
 0.29977400000000E+04
 0.29979300000000E+04
 0.29989700000000E+04
 0.29990500000000E+04
 0.29995400000000E+04
 0.29997100000000E+04
 0.30015100000000E+04
 0.30015500000000E+04
 0.30019000000000E+04
 0.30026900000000E+04
 0.30610300000000E+04
 0.30610300000000E+04
 0.30612500000000E+04
 0.30612700000000E+04
 0.30718800000000E+04
 0.30719100000000E+04
 0.30719300000000E+04
 0.30719500000000E+04
 0.30828800000000E+04
 0.30829000000000E+04
 0.30829700000000E+04
 0.30830000000000E+04
 0.30835300000000E+04
 0.30835400000000E+04
 0.30835500000000E+04
 0.30835900000000E+04
 0.30931900000000E+04
 0.30932600000000E+04
 0.30933900000000E+04
 0.30934100000000E+04
 0.31146300000000E+04
 0.31146500000000E+04
 0.31146600000000E+04
 0.31146600000000E+04
 0.31273600000000E+04
 0.31273700000000E+04
 0.31286900000000E+04
 0.31287200000000E+04
 0.31290100000000E+04
 0.31290100000000E+04
 0.31293900000000E+04
 0.31294000000000E+04
 0.31303700000000E+04
 0.31303700000000E+04
 0.31311500000000E+04
 0.31311500000000E+04
 0.31357300000000E+04
 0.31357500000000E+04
 0.31357700000000E+04
 0.31358000000000E+04
[INT]
 0.00000000000000E+00
 0.00000000000000E+00
 0.00000000000000E+00
 0.00000000000000E+00
 0.00000000000000E+00
 0.00000000000000E+00
 0.00000000000000E+00
 0.00000000000000E+00
 0.00000000000000E+00
 0.35006000000000E+00
 0.40600000000000E-02
 0.00000000000000E+00
 0.49957000000000E+00
 0.00000000000000E+00
 0.62000000000000E-02
 0.13300000000000E-02
 0.12303600000000E+01
 0.52423000000000E+00
 0.78545000000000E+00
 0.44615900000000E+01
 0.15500000000000E-02
 0.70600000000000E-01
 0.00000000000000E+00
 0.22223000000000E+00
 0.00000000000000E+00
 0.14900000000000E-02
 0.38187000000000E+00
 0.34550800000000E+01
 0.00000000000000E+00
 0.29090000000000E-01
 0.55824000000000E+00
 0.79420000000000E-01
 0.00000000000000E+00
 0.79250000000000E-01
 0.47831000000000E+01
 0.92008000000000E+00
 0.00000000000000E+00
 0.10520000000000E-01
 0.24230000000000E+00
 0.72000000000000E-03
 0.00000000000000E+00
 0.25244000000000E+00
 0.00000000000000E+00
 0.12213960000000E+02
 0.44060000000000E-01
 0.79200000000000E-02
 0.27484300000000E+01
 0.20355000000000E+00
 0.00000000000000E+00
 0.31780000000000E-01
 0.60000000000000E-04
 0.00000000000000E+00
 0.32680900000000E+01
 0.24993000000000E+00
 0.17851000000000E+00
 0.26838000000000E+00
 0.00000000000000E+00
 0.15455000000000E+00
 0.64410000000000E-01
 0.26358000000000E+00
 0.00000000000000E+00
 0.00000000000000E+00
 0.58619700000000E+01
 0.30000000000000E-04
 0.32100000000000E-01
 0.37045000000000E+00
 0.58648000000000E+00
 0.21918304000000E+03
 0.00000000000000E+00
 0.11001390000000E+02
 0.87320000000000E+00
 0.16154000000000E+00
 0.00000000000000E+00
 0.48790000000000E+00
 0.47560000000000E+00
 0.21387600000000E+01
 0.00000000000000E+00
 0.16730000000000E-01
 0.19290000000000E-01
 0.00000000000000E+00
 0.33668000000000E+00
 0.29249000000000E+00
 0.35981000000000E+00
 0.25439570000000E+02
 0.00000000000000E+00
 0.13536366000000E+03
 0.00000000000000E+00
 0.89095980000000E+02
 0.10779476000000E+03
 0.91901000000000E+00
 0.27970000000000E+00
 0.14610000000000E-01
 0.15420800000000E+01
 0.00000000000000E+00
 0.55439000000000E+00
 0.91694400000000E+01
 0.00000000000000E+00
 0.00000000000000E+00
 0.32818235000000E+03
 0.38905230000000E+02
 0.36578590000000E+02
 0.12800000000000E-01
 0.10525000000000E+00
 0.12850000000000E-01
 0.00000000000000E+00
 0.12205000000000E+00
 0.00000000000000E+00
 0.28600000000000E-02
 0.15755000000000E+00
 0.56560000000000E-01
 0.14610000000000E+00
 0.00000000000000E+00
 0.53640000000000E-01
 0.29589700000000E+01
 0.43254600000000E+01
 0.33863800000000E+01
 0.00000000000000E+00
 0.87498000000000E+00
 0.18284000000000E+00
 0.23114000000000E+00
 0.00000000000000E+00
 0.51620000000000E-01
 0.83290000000000E-01
 0.98191000000000E+00
 0.00000000000000E+00
 0.24130000000000E-01
 0.62038000000000E+00
 0.53102000000000E+00
 0.00000000000000E+00
 0.21159300000000E+01
 0.15752600000000E+01
 0.20011000000000E+00
 0.00000000000000E+00
 0.24034200000000E+01
 0.22510500000000E+01
 0.00000000000000E+00
 0.10000000000000E-04
 0.12308600000000E+01
 0.23374000000000E+00
 0.11995100000000E+01
 0.00000000000000E+00
 0.65894000000000E+01
 0.19226110000000E+02
 0.10603900000000E+02
 0.00000000000000E+00
 0.87957900000000E+01
 0.19307460000000E+02
 0.10164730000000E+02
 0.00000000000000E+00
 0.55821600000000E+01
 0.63097300000000E+01
 0.32336890000000E+02
 0.00000000000000E+00
 0.10632800000000E+01
 0.30067000000000E+00
 0.58966300000000E+01
 0.00000000000000E+00
 0.53610000000000E-01
 0.17081000000000E+00
 0.37280000000000E-01
 0.00000000000000E+00
 0.54619900000000E+01
 0.88183000000000E+00
 0.54239000000000E+00
 0.00000000000000E+00
 0.46007000000000E+00
 0.69880000000000E+00
 0.60233100000000E+01
 0.00000000000000E+00
 0.78370000000000E-01
 0.47482000000000E+00
 0.13461800000000E+01
 0.00000000000000E+00
 0.11340000000000E-01
 0.00000000000000E+00
 0.16100000000000E+00
 0.16660000000000E-01
 0.16593200000000E+01
 0.00000000000000E+00
 0.15200000000000E-02
 0.30485000000000E+00
 0.13957000000000E+00
 0.46588000000000E+00
 0.21912700000000E+01
 0.00000000000000E+00
 0.27631000000000E+00
 0.00000000000000E+00
 0.15577000000000E+00
 0.33335000000000E+00
 0.45160000000000E-01
 0.24072400000000E+01
 0.20560000000000E+00
 0.00000000000000E+00
 0.27509000000000E+00
 0.15814700000000E+01
 0.17229030000000E+02
 0.00000000000000E+00
 0.10369700000000E+01
 0.10435600000000E+01
 0.57434000000000E+00
 0.00000000000000E+00
 0.30220000000000E-01
 0.00000000000000E+00
 0.19860000000000E+00
 0.51957000000000E+00
 0.21093700000000E+01
 0.92490000000000E-01
 0.15949800000000E+01
 0.00000000000000E+00
 0.44497000000000E+00
 0.38458520000000E+02
 0.29198500000000E+01
 0.00000000000000E+00
 0.76254600000000E+01
 0.00000000000000E+00
 0.38058100000000E+01
 0.61300000000000E-01
 0.34967400000000E+01
 0.00000000000000E+00
 0.15969900000000E+02
 0.15171470000000E+02
 0.18734560000000E+02
 0.00000000000000E+00
 0.69530000000000E-01
 0.23883300000000E+01
 0.41920800000000E+01
 0.41793000000000E+00
 0.20347700000000E+01
 0.00000000000000E+00
 0.41614900000000E+01
 0.48198000000000E+00
 0.82515600000000E+01
 0.00000000000000E+00
 0.33104000000000E+00
 0.52098100000000E+01
 0.00000000000000E+00
 0.60782000000000E+00
 0.22721450000000E+02
 0.00000000000000E+00
 0.22975800000000E+01
 0.23517700000000E+01
 0.52160940000000E+02
 0.27834500000000E+02
 0.29538610000000E+02
 0.00000000000000E+00
 0.33790900000000E+01
 0.00000000000000E+00
 0.41081000000000E+00
 0.43714100000000E+01
 0.10883900000000E+01
 0.78352000000000E+00
 0.13061100000000E+01
 0.00000000000000E+00
 0.11200400000000E+01
 0.10393500000000E+01
 0.00000000000000E+00
 0.76940000000000E-01
 0.58169000000000E+00
 0.12491400000000E+01
 0.00000000000000E+00
 0.20264000000000E+00
 0.11732000000000E+00
 0.10224110000000E+02
 0.00000000000000E+00
 0.24888832000000E+03
 0.12637340000000E+02
 0.14418940000000E+02
 0.10240897000000E+03
 0.00000000000000E+00
 0.69127190000000E+02
 0.63557400000000E+02
 0.12597733000000E+03
 0.00000000000000E+00
 0.64600000000000E-02
 0.31463563000000E+03
 0.13529814000000E+03
 0.00000000000000E+00
 0.28279600000000E+01
 0.22611435000000E+03
 0.40417978000000E+03
 0.00000000000000E+00
 0.97639200000000E+01
 0.00000000000000E+00
 0.28613600000000E+02
 0.67961370000000E+02
 0.32706000000000E+00
 0.00000000000000E+00
 0.19772680000000E+02
 0.50996400000000E+02
 0.70396100000000E+01
 0.36877100000000E+01
 0.26929410000000E+02
 0.00000000000000E+00
 0.00000000000000E+00
 0.50143050000000E+02
 0.92740000000000E-01
 0.65023230000000E+02
 0.13937810000000E+02
 0.19509640000000E+02
 0.30652710000000E+02
 0.00000000000000E+00
 0.48253600000000E+01
 0.11541000000000E+01
 0.39501750000000E+02
 0.00000000000000E+00
 0.14426670000000E+02
 0.23905880000000E+02
 0.75316090000000E+02
 0.00000000000000E+00
 0.24773250000000E+02
 0.78082600000000E+01
 0.29860130000000E+02
 0.00000000000000E+00
 0.55319900000000E+01
 0.00000000000000E+00
 0.10642550000000E+02
 0.21691000000000E+00
 0.12593000000000E+00
 0.00000000000000E+00
 0.94310400000000E+01
 0.13316740000000E+02
[FR-COORD]
 mo 0.00000000000000E+00 0.00000000000000E+00 0.00000000000000E+00
 y  0.00000000000000E+00 0.00000000000000E+00 -.64794166553825E+01
 s  0.24110302901342E+01 0.23606112542021E+01 -.25630816763216E+01
 s  -.24110302901342E+01 -.23606112542021E+01 -.25630816763216E+01
 s  0.24110302901342E+01 -.23606112542021E+01 0.25630816763216E+01
 s  -.24110302901342E+01 0.23606112542021E+01 0.25630816763216E+01
 c  0.45969939859260E+01 -.20192723948410E+01 -.70244310644191E+01
 c  0.30628807934263E+01 -.39999932201229E+01 -.60428803498205E+01
 c  0.12342662402610E+01 -.46440480639974E+01 -.79190754952656E+01
 c  0.16759176991852E+01 -.30999756837719E+01 -.10088974315767E+02
 c  0.37411668126712E+01 -.14493466020603E+01 -.95215076652147E+01
 c  -.12342662402610E+01 0.46440480639974E+01 -.79190754952656E+01
 c  -.30628807934263E+01 0.39999932201229E+01 -.60428803498205E+01
 c  -.45969939859260E+01 0.20192723948410E+01 -.70244310644191E+01
 c  -.37411668126712E+01 0.14493466020603E+01 -.95215076652147E+01
 c  -.16759176991852E+01 0.30999756837719E+01 -.10088974315767E+02
 c  -.68393307519580E+00 -.67299293902846E+01 -.77043723962361E+01
 c  0.51422594843778E+00 -.35303295185200E+01 -.12643164013450E+02
 c  0.34572081434388E+01 -.53360638299387E+01 -.35749861534310E+01
 c  0.50811522512093E+01 0.28912971423356E+00 -.11328138928775E+02
 c  0.68963147048340E+01 -.91841346100471E+00 -.57739345853688E+01
 c  -.51422594843778E+00 0.35303295185200E+01 -.12643164013450E+02
 c  -.34572081434388E+01 0.53360638299387E+01 -.35749861534310E+01
 c  -.68963147048340E+01 0.91841346100471E+00 -.57739345853688E+01
 c  -.50811522512093E+01 -.28912971423355E+00 -.11328138928775E+02
 h  0.47250029117125E+01 -.69797312348545E+01 -.38218172794634E+01
 h  0.16652453210503E+01 -.60181307742302E+01 -.27737931993513E+01
 h  -.16652453210503E+01 0.60181307742302E+01 -.27737931993513E+01
 h  -.47250029117125E+01 0.69797312348545E+01 -.38218172794634E+01
 h  0.43089585753941E+01 -.40877268102478E+01 -.21504915336376E+01
 h  -.43089585753941E+01 0.40877268102478E+01 -.21504915336376E+01
 h  0.72113962474418E+01 0.10585190905771E+01 -.63393872104516E+01
 h  0.86106828063460E+01 -.19988582306469E+01 -.62900204136906E+01
 h  0.67174771855270E+01 -.94224785994229E+00 -.37042637432756E+01
 h  -.72113962474418E+01 -.10585190905771E+01 -.63393872104516E+01
 h  -.86106828063460E+01 0.19988582306469E+01 -.62900204136906E+01
 h  -.67174771855270E+01 0.94224785994229E+00 -.37042637432756E+01
 c  0.68393307519580E+00 0.67299293902846E+01 -.77043723962361E+01
 h  -.10853096554411E+00 0.85666672747009E+01 -.83111171835448E+01
 h  0.23580784636248E+01 0.63645653343884E+01 -.88875091376015E+01
 h  0.13405881663355E+01 0.69404162507858E+01 -.57423381517953E+01
 h  0.10853096554411E+00 -.85666672747009E+01 -.83111171835448E+01
 h  -.23580784636248E+01 -.63645653343884E+01 -.88875091376015E+01
 h  0.39999157058839E+01 0.55768288946173E+00 -.13079530431174E+02
 h  -.39999157058839E+01 -.55768288946173E+00 -.13079530431174E+02
 h  -.16057296548726E+01 0.49577618967105E+01 -.13711892722053E+02
 h  0.16057296548726E+01 -.49577618967105E+01 -.13711892722053E+02
 h  -.13405881663355E+01 -.69404162507858E+01 -.57423381517953E+01
 y  0.00000000000000E+00 0.00000000000000E+00 0.64794166553825E+01
 c  0.12342662402610E+01 0.46440480639974E+01 0.79190754952656E+01
 c  -.12342662402610E+01 -.46440480639974E+01 0.79190754952656E+01
 c  0.45969939859260E+01 0.20192723948410E+01 0.70244310644191E+01
 c  -.45969939859260E+01 -.20192723948410E+01 0.70244310644191E+01
 c  0.30628807934263E+01 0.39999932201229E+01 0.60428803498205E+01
 c  -.30628807934263E+01 -.39999932201229E+01 0.60428803498205E+01
 c  0.37411668126712E+01 0.14493466020603E+01 0.95215076652147E+01
 c  -.37411668126712E+01 -.14493466020603E+01 0.95215076652147E+01
 c  0.16759176991852E+01 0.30999756837719E+01 0.10088974315767E+02
 c  -.16759176991852E+01 -.30999756837719E+01 0.10088974315767E+02
 c  0.68963147048340E+01 0.91841346100471E+00 0.57739345853688E+01
 c  -.68963147048340E+01 -.91841346100471E+00 0.57739345853688E+01
 c  -.68393307519580E+00 0.67299293902846E+01 0.77043723962361E+01
 c  0.68393307519580E+00 -.67299293902846E+01 0.77043723962361E+01
 c  0.50811522512093E+01 -.28912971423356E+00 0.11328138928775E+02
 c  -.50811522512093E+01 0.28912971423355E+00 0.11328138928775E+02
 c  0.51422594843778E+00 0.35303295185200E+01 0.12643164013450E+02
 c  -.51422594843778E+00 -.35303295185200E+01 0.12643164013450E+02
 c  0.34572081434388E+01 0.53360638299387E+01 0.35749861534310E+01
 c  -.34572081434388E+01 -.53360638299387E+01 0.35749861534310E+01
 h  0.47250029117125E+01 0.69797312348545E+01 0.38218172794634E+01
 h  -.47250029117125E+01 -.69797312348545E+01 0.38218172794634E+01
 h  0.43089585753941E+01 0.40877268102478E+01 0.21504915336376E+01
 h  -.43089585753941E+01 -.40877268102478E+01 0.21504915336376E+01
 h  0.16652453210503E+01 0.60181307742302E+01 0.27737931993513E+01
 h  -.16652453210503E+01 -.60181307742302E+01 0.27737931993513E+01
 h  -.23580784636248E+01 0.63645653343884E+01 0.88875091376015E+01
 h  0.23580784636248E+01 -.63645653343884E+01 0.88875091376015E+01
 h  0.72113962474418E+01 -.10585190905771E+01 0.63393872104516E+01
 h  -.72113962474418E+01 0.10585190905771E+01 0.63393872104516E+01
 h  0.10853096554411E+00 0.85666672747009E+01 0.83111171835448E+01
 h  -.10853096554411E+00 -.85666672747009E+01 0.83111171835448E+01
 h  0.86106828063460E+01 0.19988582306469E+01 0.62900204136906E+01
 h  -.86106828063460E+01 -.19988582306469E+01 0.62900204136906E+01
 h  -.13405881663355E+01 0.69404162507858E+01 0.57423381517953E+01
 h  0.13405881663355E+01 -.69404162507858E+01 0.57423381517953E+01
 h  0.67174771855270E+01 0.94224785994229E+00 0.37042637432756E+01
 h  -.67174771855270E+01 -.94224785994229E+00 0.37042637432756E+01
 h  0.54295498317272E+01 -.21742739549886E+01 0.10509244723424E+02
 h  -.14338697130662E+01 -.42392112348776E+01 -.12501942740001E+02
 h  0.14338697130662E+01 0.42392112348776E+01 -.12501942740001E+02
 h  0.47491539620797E+00 0.18057519299405E+01 0.13801074942115E+02
 h  -.47491539620797E+00 -.18057519299405E+01 0.13801074942115E+02
 h  0.39999157058839E+01 -.55768288946173E+00 0.13079530431174E+02
 h  0.47491539620797E+00 -.18057519299405E+01 -.13801074942115E+02
 h  -.39999157058839E+01 0.55768288946173E+00 0.13079530431174E+02
 h  -.47491539620797E+00 0.18057519299405E+01 -.13801074942115E+02
 h  -.54295498317272E+01 0.21742739549886E+01 0.10509244723424E+02
 h  0.14338697130662E+01 -.42392112348776E+01 0.12501942740001E+02
 h  -.54295498317272E+01 -.21742739549886E+01 -.10509244723424E+02
 h  -.14338697130662E+01 0.42392112348776E+01 0.12501942740001E+02
 h  0.54295498317272E+01 0.21742739549886E+01 -.10509244723424E+02
 h  -.69471259007406E+01 -.48507854277405E+00 0.11861842105349E+02
 h  0.69471259007406E+01 0.48507854277405E+00 0.11861842105349E+02
 h  -.16057296548726E+01 -.49577618967105E+01 0.13711892722053E+02
 h  -.69471259007406E+01 0.48507854277405E+00 -.11861842105349E+02
 h  0.16057296548726E+01 0.49577618967105E+01 0.13711892722053E+02
 h  0.69471259007406E+01 -.48507854277405E+00 -.11861842105349E+02
[FR-NORM-COORD]
 vibration    1
 0.00000000000000E+00 -.39447544100000E-01 0.00000000000000E+00
 0.23319179400000E-01 0.18316328000000E-02 0.00000000000000E+00
 0.26440342800000E-01 -.40826753000000E-01 0.23392094000000E-01
 0.26440342800000E-01 -.40826753000000E-01 -.23392094000000E-01