           SMPCPUS    set: Shared-memory Parallelization with  30 CPUs.

           SMP Parallelization Reference:
           C. van Wullen, J. Comput. Chem. 32 (2011) 1195--1201
 operating system is UNIX !

 force (c-13-33.gp.local) : TURBOMOLE V7.3 ( 21945 ) 11 Apr 2018 at 12:17:13
 Copyright (C) 2018 TURBOMOLE GmbH, Karlsruhe


    2018-07-27 22:44:38.868 



                             T U R B O M O L E   

                          a o f o r c e - program

                        using direct algorithms for

                       SCF level calculations of
                         * harmonic force constants
                         * hyperpolarizabilities
                         * IR and RAMAN intensities
                         * VCD intensities

                       DFT level calculations of
                         * harmonic force constants
                         * IR intensities
                                                   
       Stephan Boecker, Peter Deglmann, Filipp Furche and Marco Haeser
                          Quantum Chemistry Group
                          Universitaet  Karlsruhe
                                   Germany

 
 
 
 
     References :
 
       RI-J implementation:
         Peter Deglmann, Klaus May, Filipp Furche, Reinhart Ahlrichs
                 Chem. Phys. Lett. 384:103 (2004)
 
       Efficiency, technical details:
         Peter Deglmann, Filipp Furche, Reinhart Ahlrichs
                 Chem. Phys. Lett. 362:511 (2002)
 
       Search of lowest eigenvalues by iterative diagonalization:
         Peter Deglmann, Filipp Furche
                 J. Chem. Phys. 117:9535 (2002)
 
       Vibrational circular dichroism implementation:
        Kevin Reiter, Michael Kuehn, Florian Weigend
                 J. Chem. Phys. 146:054102 (2017)  
 
 


              +--------------------------------------------------+
              | Atomic coordinate, charge and isotop information |
              +--------------------------------------------------+

                    atomic coordinates            atom    charge  isotop
          5.59671866   19.02297706   22.16940780    mo    42.000     0
          0.03480015   19.38296621   19.00839118    y     39.000     0
         10.76037972   19.14087351   25.96013939    y     39.000     0
          5.10800865   19.72426747   18.02486069    s     16.000     0
          1.75149481   18.18567208   23.73189630    s     16.000     0
          8.25338589   15.80749928   22.88862881    s     16.000     0
          7.24166882   22.42194541   24.08311844    s     16.000     0
          0.36700926   15.70510620   15.61350354    c      6.000     0
          0.65997541   14.49448119   18.00433872    c      6.000     0
         -1.68995896   14.66889305   19.31223399    c      6.000     0
         -3.44857441   15.95868927   17.72193932    c      6.000     0
         -2.17333905   16.59870170   15.42515844    c      6.000     0
          0.66389508   24.41862029   19.16527462    c      6.000     0
         -0.69663936   23.79872031   21.40059187    c      6.000     0
         -3.13018902   22.88014481   20.67045571    c      6.000     0
         -3.29728846   22.99562017   17.97594386    c      6.000     0
         -0.92305409   23.88607095   17.04450226    c      6.000     0
         13.79722145   22.26393767   23.43219212    c      6.000     0
         15.24325260   21.42070779   25.54983896    c      6.000     0
         15.73372396   18.78190461   25.21981568    c      6.000     0
           .             .             .            .      .         .
           .             .             .            .      .         .
           .             .             .            .      .         .
         10.94257011   12.30302457   31.40582587    h      1.000     0
         13.60579747   13.50455660   29.75540489    h      1.000     0
          4.29511914   15.80437654   27.61440534    h      1.000     0
          4.97887344   14.08175432   30.43096726    h      1.000     0
          6.54055182   13.33302480   27.53875768    h      1.000     0
         17.97983831   24.22173995   26.70926649    h      1.000     0
         17.09909726   22.09182086   29.14326482    h      1.000     0
         15.00438608   24.54199631   28.21091858    h      1.000     0
         11.37451083   25.06012841   21.70553688    h      1.000     0
         14.61855642   25.96364657   21.90995330    h      1.000     0
         12.66596841   26.01277127   24.64355391    h      1.000     0
         11.22686743   18.42000362   18.80385065    h      1.000     0
         13.44257759   20.73506089   17.75386164    h      1.000     0
         10.57017335   21.65857967   19.25272601    h      1.000     0
         16.70254216   15.32581570   27.24582181    h      1.000     0
         18.10603435   18.11017105   28.48721240    h      1.000     0
         19.25403084   16.77251025   25.63411218    h      1.000     0
         16.54359692   15.22446973   20.65182070    h      1.000     0
         13.18008497   15.03517099   20.48297758    h      1.000     0
         14.78977298   13.92521708   23.20364218    h      1.000     0
 
       center of nuclear mass  :    5.40011948   19.25679081   22.48068543
       center of nuclear charge:    5.39258113   19.26559039   22.49264129

              +--------------------------------------------------+
              |               basis set information              |
              +--------------------------------------------------+

              we will work with the 1s 3p 5d 7f 9g ... basis set
              ...i.e. with spherical basis functions...

   type   atoms  prim   cont   basis
   ---------------------------------------------------------------------------
    mo       1     57     31   def2-SVP   [5s3p2d1f|7s6p5d1f]
    y        2     57     31   def2-SVP   [5s3p2d1f|7s6p5d1f]
    s        4     36     18   def2-SVP   [4s3p1d|10s7p1d]
    c       40     24     14   def2-SVP   [3s2p1d|7s4p1d]
    h       60      7      5   def2-SVP   [2s1p|4s1p]
   ---------------------------------------------------------------------------
   total:  107   1695   1025
   ---------------------------------------------------------------------------

   total number of primitive shells          :   73
   total number of contracted shells         :  485
   total number of cartesian basis functions : 1084
   total number of SCF-basis functions       : 1025

 number of unique ecp types :                     2
 
             FOUND RI-J FLAG !
 

 NOTE: THIS IS A PRELIMINARY IMPLEMENTATION. THE RI APPROXIMATION IS
       PRESENTLY USED FOR CPKS CONTRIBUTIONS TO THE HESSIAN ONLY! SEE
       MANUAL FOR FURTHER DETAILS.

  
 AUXILIARY BASIS SET information:

              we will work with the 1s 3p 5d 7f 9g ... basis set
              ...i.e. with spherical basis functions...

   type   atoms  prim   cont   basis
   ---------------------------------------------------------------------------
    mo       1     99     89   def2-SVP   [8s5p5d2f3g|11s5p5d3f3g]
    y        2     99     89   def2-SVP   [8s5p5d2f3g|11s5p5d3f3g]
    s        4     77     51   def2-SVP   [8s4p3d1f1g|14s5p5d2f1g]
    c       40     70     49   def2-SVP   [6s4p3d1f1g|12s5p4d2f1g]
    h       60     16     11   def2-SVP   [3s1p1d|5s2p1d]
   ---------------------------------------------------------------------------
   total:  107   4365   3091
   ---------------------------------------------------------------------------

   total number of primitive shells          :  113
   total number of contracted shells         : 1037
   total number of cartesian basis functions : 3766
   total number of SCF-basis functions       : 3091


 symmetry group of the molecule :   c1 

 the group has the following generators :
   c1(z)

    1 symmetry operations found

 there are 1 real representations :   a   

 maximum number of shells which are related by symmetry :  1


 determining totally symmetric integral contributions 
    - equivalent to irreducible tensor elements - 
 which can be formed within each triple of representations :

             representation triple      contributions

              a     a     a               1
       UHF mode switched on !

    mo occupation :
   irrep   mo's   occupied
    a     1025      201
 
 number of basis functions   :                   1025
 number of occupied orbitals :                    201
 
 ALPHA-Occupation:                   201
 BETA-Occupation :                   200
  MOs are in ASCII format !


 reading orbital data $uhfmo_alpha  from file alpha
 orbital characterization : scfconv=7

 reading orbital data $uhfmo_beta  from file beta
 orbital characterization : scfconv=7
 time elapsed for calculating density matrices :   0.443 sec

 number of non-frozen orbitals          :  1025
 number of non-frozen occupied orbitals :   201

 number of non-frozen orbitals          :  1025
 number of non-frozen occupied orbitals :   200
 Splitting of direct access files enabled for dh.
 Blocking parameters 
 shells:
    index      start shell   last shell  start bf    last bf    #bf 
       1             1         485             1       1084   1084
          size of I/O Block in Byte:             3017543808
  
           ----------------------
               RI - INFORMATION
           ----------------------

 biggest AO integral is expected to be     9.765798878

 Threshold for integral neglect (rithr2):   0.23E-11
 Threshold for integral neglect (rithr1):   0.23E-11

 Contributions to RI integral batches: 
  neglected integral batches:                 53019
  direct contribution:                            0
  memory contribution:                 64836
 Core memory available (ricore):            100000 MiB
 Core memory needed for (P|Q) and Cholesky:     73 MiB
 Core memory used for integrals:              8934 MiB
 
 ****************************************
 Memory allocated for RIDFT: 9007 MiB
 ****************************************
 
  
           ------------------
           density functional
           ------------------
 TPSS global hybrid functional
 exchange:    9/10 (LDA+TPSS) + 1/10 HF
 correlation: LDA (PW) + TPSS

 iterations will be done with small grid
  
 spherical integration : Lebedev's spherical grid
 spherical gridsize    :                     5
    i.e. gridpoints    :                   590
 value for diffuse not defined
 radial integration    : Chebyshev 2nd kind (scaling 3)
 radial gridsize       :                     8
 integration cells     :                   107
 partition function    : becke
 partition sharpness   :                     3
  
 
 Derivatives of quadrature weights will be included
 
          Overall gridpoints after grid construction =       1591462
 Ordering of quadrature gridpoints disabled.
 
 
 
 
 OCCUPIED-OCCUPIED TENSOR SPACES :

          IRREP   tensor space dimension   number of roots

           a             80401                 315
 
 OCCUPIED-VIRTUAL TENSOR SPACES :

          IRREP   tensor space dimension   number of roots

           a            330624                 315
 
 
 
 
 CONSTRUCTING integral bounds

 setting up bound for integral derivative estimation

 increment for numerical differentiation : 0.00050000
 
 machine precision:   2.220446049250313E-016

 integral neglect threshold       :  0.10E-09
 integral storage threshold THIZE :  0.10E-04
 integral storage threshold THIME :         5

 
 
 
 PREPARING NUMERICAL INTEGRATION
 
 Remaining core memory for DFT =                111358 MB
 
 Memory needed per atom    =                 27565 KiB
 
     i. e.                   107 atoms per loop

 Calculating ground state density on molecular grid

 Integral of ground state total density: Na =   400.9999571505199    

 Integral of ground state spin density:  Nb =   1.000003107311513    


 
 
 CONSTRUCTING first deriv. of <mu|x,y,z|nu> -> Dip. deriv.
  dipole integral derivatives will be neglected if
  expon. factor <0.461255E-12
      ...terminated. cpu:       0.30       wall:       0.39
 
 
 
 
 CONSTRUCTING first deriv. of  <mu|nu>
                               <mu|h|nu>    -> RHS
              second deriv. of <mu|nu>      -> Hessian
                               <mu|h|nu>    -> Hessian
                               nucl. rep.   -> Hessian
     integrals are neglected if expon. factor <  4.612546125461255E-014
 
 CONSTRUCTING ECP contribution              -> RHS
 
                                            -> Hessian
  _________________________________
 |                                 |
 |         DFTD3 V3.1 Rev 0        |
 | S.Grimme, University Bonn       |
 |         June 2014               |
 |   see standalone version        |
 |       dftd3 -h for options      |
 |_________________________________|
 
 Please cite DFT-D3 work done with this code as:
 S. Grimme, J. Antony, S. Ehrlich and H. Krieg,
 J. Chem. Phys, 132 (2010), 154104.
 If used with BJ-damping cite also
 S. Grimme, S. Ehrlich and L. Goerigk,
 J. Comput. Chem. 32 (2011), 1456-1465
 For DFT-D2 the reference is
 S. Grimme, J. Comput. Chem., 27 (2006), 1787-1799
 
      ...terminated. cpu:     132.21       wall:     133.23
 
 
 
 
 CONSTRUCTING second deriv. of 2e energy    -> Hessian
   treating Coulomb (and exchange) contribution
     integrals will be neglected if total contribution <  4.612546125461255E-010
      ...terminated. cpu:   16411.65       wall:     550.19
   treating exchange-correlation contribution
      ...terminated. cpu:   44870.55       wall:    1497.88
 
 
 
 
 CONSTRUCTING S(i,j)xi
      ...terminated. cpu:      21.76       wall:      23.29
 
 
 
 
 CONSTRUCTING <i|x,y,z|j>*S(i,j)xi          -> Dip. deriv.
      ...terminated. cpu:       2.51       wall:      18.49
 
 
 
 
 CONSTRUCTING epsilon(i)*S(i,j)xi*S(i,j)chi -> Hessian
      ...terminated. cpu:       1.76       wall:      27.83
 
 
 
 
 CONSTRUCTING G(a,i)[S(k,l)xi]              -> RHS
              G(i,j)[S(k,l)xi]*S(i,j)chi    -> Hessian
 
         Maximum core memory set to                 120000 MB
         This corresponds to                  6670 vectors in CAO basis
      ...terminated. cpu:  747311.62       wall:   25386.27
 
 
 
 
 CONSTRUCTING G(mu,nu)[D(kap,lam)]xi
 
          Maximum core memory set to                 120000 MB
          Atoms treated simultaneously :                   107
 max of dfo   91.9781517170107     
      ...terminated. cpu:  151191.87       wall:    5190.88
 
 
 
 
 CONSTRUCTING F(a,i)xi                      -> RHS
              F(i,j)xi*S(i,j)chi            -> Hessian
 
        Maximum core memory set to                120000 MB
        This corresponds to                 10438 vectors in CAO basis
      ...terminated. cpu:     523.46       wall:     852.64
 
 
 
 
 CONSTRUCTING epsilon(i)*S(a,i)xi           -> RHS
      ...terminated. cpu:      90.33       wall:     168.48
 
 
 
 
 SOLVING CPHF equations
 
 Residuum convergence criterium   :  1.000000000000000E-005
 
 Maximum number of Davidson iterations set to                    25
  Switching to small grid
        preparing numerical integration ....
          Overall gridpoints after grid construction =        494824

 Calculating ground state density on molecular grid

 Integral of ground state total density: Na =   401.0017595457019    

 Integral of ground state spin density:  Nb =   1.000007717023494    




                       Nonorthonormal Krylov Space Iteration


 total number of roots to be determined: 315


 maximum core memory set to ***** MB,
 corresponding to     6660 vectors in CAO basis


 maximum number of simultaneously treated vectors (including degeneracy):      315


 Iteration IRREP Converged      Max. Euclidean
                 roots          residual norm

    1       a        0        6.856688320441229D-02
 
    2       a        0        6.556211324960448D-03
 
    3       a        0        7.154201246391357D-04
 
    4       a       88        5.022291160987930D-05
 
    5       a      315        9.980923761051740D-06
 

 converged!

  Switching to fine grid
        preparing numerical integration ....
          Overall gridpoints after grid construction =       1591462

 Calculating ground state density on molecular grid

 Integral of ground state total density: Na =   400.9999571505138    

 Integral of ground state spin density:  Nb =   1.000003107311508    



 Iteration IRREP Converged      Max. Euclidean
                 roots          residual norm

    6       a        0        2.715875045488058D-04
 

 NOTE: Residual norms are larger than 1.00D-05 due to mgrid option!

      ...terminated. cpu: 2109409.72       wall:   84217.55
 
 
 
 
 CONSTRUCTING <a|x,y,z|i>*U(a,i)xi          -> Dip. deriv.
      ...terminated. cpu:       6.10       wall:      27.45
 
 
 
 
 CONSTRUCTING RHS(a,i)xi*U(a,i)chi          -> Hessian
      ...terminated. cpu:       7.61       wall:      55.57
 
 
 
 

            -----------------------
            permanent dipole moment
            -----------------------

                                   x                y                z
    electronic part       : ***************  ***************  ***************
     nuclear   part       : 2151.0361083152  7713.2348801605  9006.5761116649
     total                :   -5.5024492661   -19.1398081196   -22.3257086857

 with reference to the point :   0.0000000        0.0000000        0.0000000
 (given in atomic units)
    | dipole |       :   76.0428356972  debye

   ***  dipole moment & cartesian dipole gradients written onto
        $dipole, $dipgrad,  file=<dipgrad>  ***

             -----------------------------------
             rotational and vibrational analysis
             -----------------------------------


            ==============================================================
            ATOMIC WEIGHTS (average over the natural occurance of isotops)
            ==============================================================
            ('*' denotes special isotop !)
              1     mo               95.94000
              2     y                88.90500
              3     y                88.90500
              4     s                32.06400
              5     s                32.06400
              6     s                32.06400
              7     s                32.06400
              8     c                12.01115
              9     c                12.01115
             10     c                12.01115
             11     c                12.01115
             12     c                12.01115
             13     c                12.01115
             14     c                12.01115
             15     c                12.01115
             16     c                12.01115
             17     c                12.01115
             18     c                12.01115
             19     c                12.01115
             20     c                12.01115
             21     c                12.01115
             22     c                12.01115
             23     c                12.01115
             24     c                12.01115
             25     c                12.01115
             26     c                12.01115
             27     c                12.01115
             28     c                12.01115
             29     c                12.01115
             30     c                12.01115
             31     c                12.01115
             32     c                12.01115
             33     c                12.01115
             34     c                12.01115
             35     c                12.01115
             36     c                12.01115
             37     c                12.01115
             38     c                12.01115
             39     c                12.01115
             40     c                12.01115
             41     c                12.01115
             42     c                12.01115
             43     c                12.01115
             44     c                12.01115
             45     c                12.01115
             46     c                12.01115
             47     c                12.01115
             48     h                 1.00797
             49     h                 1.00797
             50     h                 1.00797
             51     h                 1.00797
             52     h                 1.00797
             53     h                 1.00797
             54     h                 1.00797
             55     h                 1.00797
             56     h                 1.00797
             57     h                 1.00797
             58     h                 1.00797
             59     h                 1.00797
             60     h                 1.00797
             61     h                 1.00797
             62     h                 1.00797
             63     h                 1.00797
             64     h                 1.00797
             65     h                 1.00797
             66     h                 1.00797
             67     h                 1.00797
             68     h                 1.00797
             69     h                 1.00797
             70     h                 1.00797
             71     h                 1.00797
             72     h                 1.00797
             73     h                 1.00797
             74     h                 1.00797
             75     h                 1.00797
             76     h                 1.00797
             77     h                 1.00797
             78     h                 1.00797
             79     h                 1.00797
             80     h                 1.00797
             81     h                 1.00797
             82     h                 1.00797
             83     h                 1.00797
             84     h                 1.00797
             85     h                 1.00797
             86     h                 1.00797
             87     h                 1.00797
             88     h                 1.00797
             89     h                 1.00797
             90     h                 1.00797
             91     h                 1.00797
             92     h                 1.00797
             93     h                 1.00797
             94     h                 1.00797
             95     h                 1.00797
             96     h                 1.00797
             97     h                 1.00797
             98     h                 1.00797
             99     h                 1.00797
            100     h                 1.00797
            101     h                 1.00797
            102     h                 1.00797
            103     h                 1.00797
            104     h                 1.00797
            105     h                 1.00797
            106     h                 1.00797
            107     h                 1.00797

          -------------------------------------------------
          CARTESIAN FORCE CONSTANT MATRIX (hartree/bohr**2)
         (translational & rotational space projected out)
          -------------------------------------------------

   ATOM              1 mo                          2 y 
                  dx        dy        dz        dx        dy        dz
   1 mo    dx  0.2814852
           dy -0.0030984 0.2663660
           dz  0.0110016-0.0012469 0.2754749
   2 y     dx -0.0185891 0.0002409-0.0204860 0.1272252
           dy  0.0033982 0.0039847-0.0016812-0.0092329 0.1821640
           dz -0.0202163-0.0034787 0.0045148 0.0217692 0.0203983 0.1064309
   3 y     dx -0.0197583-0.0033900-0.0141756-0.0051087 0.0008850-0.0026034
           dy -0.0023312 0.0164029 0.0020611-0.0000484-0.0003015 0.0000616
           dz -0.0174872 0.0011431-0.0066779-0.0044340 0.0008536-0.0026052
   4 s     dx -0.0161224 0.0021495-0.0072421-0.0372524-0.0025051 0.0085858
           dy  0.0018199-0.0189566 0.0262578-0.0028603-0.0076263 0.0010780
           dz -0.0083201 0.0269123-0.1623117 0.0137095 0.0010433-0.0131193
   5 s     dx -0.1317101-0.0258913 0.0555046-0.0092227 0.0001464-0.0029733
           dy -0.0269477-0.0210965 0.0136451 0.0021355-0.0097240 0.0088721
           dz  0.0564231 0.0138670-0.0424122-0.0080998 0.0080266-0.0395535
   6 s     dx -0.0670995 0.0714463-0.0132798 0.0052203 0.0002228 0.0029217
           dy  0.0718087-0.1115862 0.0164767-0.0023638-0.0003720-0.0015606
           dz -0.0122729 0.0158458-0.0180591 0.0026821-0.0001710 0.0019815
   7 s     dx -0.0319427-0.0417537-0.0228329 0.0041314-0.0009635 0.0018563
           dy -0.0426448-0.1201485-0.0543540 0.0042558-0.0021213 0.0018370
           dz -0.0223456-0.0533372-0.0436152 0.0037659-0.0013898 0.0024098
   8 c     dx  0.0004970 0.0003676-0.0001978-0.0049288-0.0029929 0.0000372
           dy  0.0003954-0.0007213 0.0018490-0.0000858-0.0142023-0.0145377
           dz  0.0002891-0.0002687 0.0000961 0.0002946-0.0090813-0.0086637
   9 c     dx  0.0009855-0.0007159-0.0005173-0.0034110-0.0005826-0.0004928
           dy  0.0000428 0.0005887-0.0000865 0.0023661-0.0208362-0.0038317
           dz -0.0003504-0.0005528 0.0010908 0.0000446-0.0056371-0.0044438
  10 c     dx -0.0000940-0.0000735 0.0003701-0.0029791-0.0057166-0.0028779
           dy  0.0018909-0.0001651-0.0008156-0.0086353-0.0198086 0.0018038
           dz  0.0006363 0.0001808 0.0001863-0.0026682-0.0030676-0.0043859
  11 c     dx -0.0006456 0.0000074 0.0008326-0.0117551-0.0049370-0.0017052
           dy  0.0005589-0.0002446-0.0000377-0.0073079-0.0160095-0.0084789
           dz -0.0000469 0.0003736-0.0002391-0.0004599-0.0097324-0.0015130
  12 c     dx -0.0002682 0.0004708-0.0001235-0.0014684-0.0055270-0.0068906
           dy  0.0000928-0.0003269 0.0005787-0.0051112-0.0168281-0.0064315
           dz  0.0006354 0.0001395-0.0007176-0.0088315-0.0043698-0.0104941
  13 c     dx  0.0008558 0.0006375 0.0002595-0.0053673-0.0000177 0.0009527
           dy  0.0005463 0.0001505-0.0018966-0.0005858-0.0184579-0.0007785
           dz -0.0004885-0.0005437 0.0006066-0.0027386 0.0004768-0.0010379
  14 c     dx  0.0008044 0.0003420-0.0006355-0.0032926 0.0052154-0.0023274
           dy -0.0011376-0.0009095 0.0006872 0.0026843-0.0150289-0.0063251
           dz -0.0002020 0.0001033 0.0014698 0.0004590-0.0054266-0.0060356
  15 c     dx -0.0007324-0.0005305 0.0014719-0.0095768 0.0077486 0.0060608
           dy -0.0016200-0.0002447-0.0000560 0.0123311-0.0184952-0.0049082
           dz -0.0004203-0.0008004 0.0006761 0.0039595-0.0001641-0.0012463
  16 c     dx -0.0006569-0.0005171 0.0007146-0.0113835 0.0080783-0.0047677
           dy -0.0003711-0.0009421 0.0001509 0.0081923-0.0215970-0.0009504
           dz  0.0007222 0.0000799-0.0016339-0.0048540-0.0010715-0.0029842
  17 c     dx  0.0010339-0.0001206-0.0011729-0.0014973 0.0091568-0.0015891
           dy -0.0007647-0.0000882-0.0012956 0.0060653-0.0219438 0.0083422
           dz  0.0002858 0.0004478-0.0013220 0.0009271 0.0020889-0.0052719
  18 c     dx  0.0006696 0.0007235 0.0008582 0.0004080-0.0000583 0.0002137
           dy -0.0001449 0.0003722 0.0003873 0.0000113 0.0000284-0.0000101
           dz -0.0002933-0.0012769-0.0010922-0.0001721 0.0000565-0.0001488
  19 c     dx  0.0001886-0.0003125-0.0002358 0.0000331 0.0000069 0.0000159
           dy  0.0001447-0.0005368 0.0002621 0.0001873-0.0000695 0.0001053
           dz -0.0000381-0.0008297-0.0007247-0.0002762 0.0000005-0.0001461
  20 c     dx  0.0001029 0.0003863 0.0000562 0.0000782-0.0000126 0.0000468
           dy  0.0001406-0.0009379-0.0004053-0.0000694-0.0000440-0.0000293
           dz -0.0001887 0.0004107-0.0005933-0.0002981 0.0000709-0.0001752
  21 c     dx  0.0007839-0.0003220 0.0006545 0.0003523-0.0000353 0.0001661
           dy  0.0005863-0.0003920 0.0000196 0.0000919-0.0000043 0.0000789
           dz -0.0006286 0.0015472-0.0005115-0.0001661 0.0000250-0.0000927
  22 c     dx  0.0002219-0.0003766 0.0005713 0.0004714-0.0000559 0.0003558
           dy -0.0001384 0.0012819 0.0004533 0.0000675-0.0001145 0.0000779
           dz -0.0002821 0.0002154 0.0011219 0.0002054-0.0000525 0.0001438
  23 c     dx -0.0004965-0.0020956-0.0002424-0.0002013 0.0000562-0.0001284
           dy -0.0002246-0.0003920-0.0006755-0.0000984-0.0000031-0.0000275
           dz  0.0009918-0.0004348 0.0005580 0.0002969-0.0000389 0.0001457
  24 c     dx -0.0007564 0.0000734 0.0004897-0.0002600 0.0000241-0.0000993
           dy  0.0001141-0.0020701-0.0001370-0.0000630 0.0000607-0.0000052
           dz  0.0003329-0.0002059-0.0004015 0.0001150 0.0000045 0.0000325
  25 c     dx -0.0010806 0.0019445 0.0001734-0.0002252 0.0000073-0.0001339
           dy -0.0003468-0.0001212 0.0002911-0.0000662 0.0000375-0.0000373
           dz  0.0008979 0.0003904 0.0008090 0.0003040-0.0000216 0.0001844
  26 c     dx  0.0000616 0.0005195 0.0001971 0.0000837 0.0000679 0.0000350
           dy  0.0002774 0.0017862 0.0000827 0.0000940 0.0000129-0.0000481
           dz  0.0012160-0.0009802-0.0002659 0.0004935-0.0000012 0.0002497
  27 c     dx  0.0003732-0.0008732 0.0000072 0.0001393-0.0000952 0.0000145
           dy -0.0008436 0.0006969 0.0002536-0.0002150 0.0000472-0.0000111
           dz  0.0006348 0.0018132 0.0002088 0.0004112-0.0000555 0.0002433
  28 c     dx -0.0004031-0.0000460 0.0001436 0.0006193-0.0005773 0.0008239
           dy  0.0005159-0.0003254-0.0001427-0.0004575-0.0008144 0.0026503
           dz  0.0001695-0.0001486 0.0002544 0.0011453 0.0029108 0.0011790
  29 c     dx -0.0002158-0.0000514-0.0002530-0.0022846-0.0012196-0.0003230
           dy  0.0000105-0.0000583 0.0002198-0.0021192 0.0024226 0.0016971
           dz -0.0000163 0.0000406 0.0000386-0.0005633 0.0011225 0.0007636
  30 c     dx -0.0004817-0.0005195-0.0012585 0.0004411 0.0029799 0.0009384
           dy  0.0006395-0.0003421-0.0000841 0.0028195-0.0016891 0.0009082
           dz -0.0009535-0.0011807 0.0007819 0.0008540 0.0011276 0.0010001
  31 c     dx -0.0002298-0.0000144-0.0000064-0.0006117 0.0001001-0.0011097
           dy  0.0002546 0.0000763-0.0000705-0.0001291 0.0040266-0.0009463
           dz -0.0001734-0.0000955-0.0001131-0.0013733 0.0005461-0.0022365
  32 c     dx  0.0001782 0.0001462-0.0003665 0.0008286 0.0019053 0.0016206
           dy  0.0003116-0.0004247 0.0003218 0.0018867 0.0016021-0.0009242
           dz -0.0001354-0.0000783-0.0001753 0.0013000-0.0011471-0.0012938
  33 c     dx  0.0001193-0.0000529-0.0004346 0.0009249-0.0005118-0.0006455
           dy -0.0000307-0.0001291 0.0001475-0.0012061 0.0019124 0.0019782
           dz -0.0003432-0.0000196 0.0000011-0.0004240 0.0024057-0.0005573
  34 c     dx -0.0000072 0.0010421 0.0001624 0.0010520-0.0028739 0.0000150
           dy  0.0001019-0.0011047-0.0001297-0.0036356-0.0017774 0.0002143
           dz  0.0004586 0.0009479 0.0007973-0.0001418 0.0004189 0.0000842
  35 c     dx  0.0004056 0.0014104 0.0004562 0.0008260-0.0008801 0.0006287
           dy  0.0003095-0.0009511-0.0002687-0.0014306 0.0002648-0.0033599
           dz -0.0001830 0.0000900 0.0000850 0.0005400-0.0028309-0.0016718
  36 c     dx -0.0003247-0.0000542-0.0000965-0.0012977 0.0006592 0.0012691
           dy  0.0001190 0.0000315-0.0002970 0.0002906 0.0035032-0.0008613
           dz -0.0000831-0.0002359 0.0002802 0.0007665-0.0006348-0.0000060
  37 c     dx -0.0002553-0.0000228-0.0000621-0.0021977 0.0008488-0.0013189
           dy -0.0001570 0.0000217-0.0000621 0.0022215 0.0034263 0.0023901
           dz -0.0001593 0.0000349-0.0001741-0.0006488 0.0014127 0.0001787
  38 c     dx  0.0009295 0.0000646-0.0003455 0.0001182-0.0000533 0.0000993
           dy -0.0010217-0.0000583 0.0003906 0.0000144 0.0000529-0.0000379
           dz  0.0007598 0.0004852-0.0012159-0.0000127 0.0000478 0.0001012
  39 c     dx  0.0004731 0.0001765-0.0001804 0.0001025 0.0000203 0.0000825
           dy  0.0003293 0.0002171 0.0001602 0.0000175-0.0000108 0.0000407
           dz  0.0011880 0.0003433-0.0011927 0.0000113-0.0001310 0.0000362
  40 c     dx -0.0002014-0.0001546 0.0000062-0.0001085 0.0000190-0.0000779
           dy -0.0002015 0.0003448-0.0001389-0.0001260 0.0001036-0.0000571
           dz -0.0000980-0.0002801-0.0001547-0.0000786-0.0000300-0.0000381
  41 c     dx -0.0003015-0.0000228-0.0002260-0.0001866 0.0000243-0.0001157
           dy  0.0000023-0.0001079-0.0000191-0.0000006 0.0000347 0.0000166
           dz -0.0000333-0.0000447-0.0000072-0.0000567 0.0000221-0.0000382
  42 c     dx -0.0002754 0.0000249-0.0000147-0.0001618-0.0000018-0.0000940
           dy  0.0000507 0.0002214 0.0002548 0.0000815 0.0000576 0.0000892
           dz -0.0001523 0.0003790 0.0000297-0.0000262 0.0000630 0.0000047
  43 c     dx -0.0000784-0.0000979-0.0000596-0.0000921 0.0000083-0.0000504
           dy -0.0001372-0.0000009 0.0000042-0.0001037 0.0000063-0.0000179
           dz -0.0003007 0.0001837-0.0000905-0.0001729 0.0000136-0.0000886
  44 c     dx  0.0000777-0.0001807 0.0003331 0.0001112-0.0000790 0.0000447
           dy -0.0001977 0.0000437-0.0000376-0.0001595-0.0000067-0.0000730
           dz -0.0001829-0.0003987-0.0006090-0.0000148-0.0000386 0.0000213
  45 c     dx -0.0011500-0.0007451 0.0006615 0.0000317-0.0000316-0.0000414
           dy  0.0000868 0.0015236-0.0002119 0.0000123-0.0000235-0.0000188
           dz -0.0009472 0.0002219-0.0005018-0.0000101-0.0000238 0.0000965
  46 c     dx -0.0001603 0.0000056-0.0000477-0.0001347 0.0000063-0.0000792
           dy  0.0001592 0.0000569 0.0000110 0.0000718-0.0000082 0.0000516
           dz -0.0002050-0.0002353-0.0001817-0.0001344 0.0000271-0.0000578
  47 c     dx -0.0001129 0.0001545 0.0002208 0.0000248 0.0000134 0.0000468
           dy  0.0002106 0.0000889 0.0002354 0.0001399-0.0000392 0.0000857
           dz -0.0001608 0.0004758-0.0003770 0.0000036 0.0000126 0.0000386
  48 h     dx -0.0000165 0.0000745 0.0001774-0.0003397 0.0000278 0.0004419
           dy -0.0002574-0.0000613-0.0001065-0.0005006 0.0008874-0.0001136
           dz  0.0002679 0.0000575-0.0000368 0.0008550-0.0017328-0.0008869
  49 h     dx  0.0000101-0.0000645 0.0001137-0.0001415-0.0005510-0.0004049
           dy  0.0000573-0.0000035 0.0000173 0.0002392 0.0001102 0.0002610
           dz  0.0000806-0.0000619 0.0000319-0.0000416-0.0008499-0.0006382
  50 h     dx -0.0001507-0.0000008 0.0000943-0.0003186 0.0001239 0.0008808
           dy  0.0001297 0.0001220 0.0002716-0.0003371 0.0001614 0.0004819
           dz  0.0001278-0.0000034-0.0004740 0.0006041 0.0000271-0.0007514
  51 h     dx  0.0001148-0.0000530-0.0000123-0.0004141-0.0010903-0.0002099
           dy  0.0000396-0.0000288 0.0000590 0.0002049-0.0001667 0.0000890
           dz  0.0000776 0.0000085-0.0000524 0.0000033-0.0001971-0.0001185
  52 h     dx  0.0001876 0.0000551 0.0002281 0.0002748-0.0018548 0.0001268
           dy -0.0001780-0.0000712-0.0000575-0.0005077-0.0000764 0.0002069
           dz -0.0000278 0.0001039-0.0002100-0.0000335 0.0013773-0.0005524
  53 h     dx -0.0003061-0.0001882 0.0001524-0.0000766-0.0000940 0.0005759
           dy  0.0001050 0.0000464 0.0001899-0.0000559-0.0000518 0.0000484
           dz  0.0002063 0.0002006-0.0002264 0.0006962 0.0008224-0.0009785
  54 h     dx  0.0000914 0.0000714 0.0000435 0.0000666 0.0009173 0.0001392
           dy -0.0000988-0.0000116-0.0000489 0.0000463-0.0000401-0.0001442
           dz  0.0000972 0.0000598 0.0000031 0.0001357 0.0007693 0.0000191
  55 h     dx -0.0000117-0.0000013 0.0001657-0.0010426 0.0004892 0.0007367
           dy -0.0000177 0.0000157-0.0000991-0.0003101 0.0004154 0.0000607
           dz -0.0000397-0.0000504-0.0000959 0.0002749-0.0006024-0.0003432
  56 h     dx  0.0001649 0.0000158 0.0002967-0.0004420 0.0019547 0.0011636
           dy  0.0001392-0.0000068 0.0001131 0.0003630 0.0001451 0.0001956
           dz -0.0000253-0.0000131-0.0000007 0.0001506-0.0001332-0.0002432
  57 h     dx -0.0000112-0.0002072-0.0000154-0.0002429-0.0003688-0.0000353
           dy -0.0013485 0.0000174 0.0004465 0.0007196 0.0001105 0.0008030
           dz  0.0001664 0.0000920-0.0001890-0.0003418-0.0003153-0.0003924
  58 h     dx  0.0006272-0.0000919-0.0000688-0.0002808 0.0001214 0.0004747
           dy  0.0003542-0.0000348 0.0000871 0.0005285 0.0008758 0.0006606
           dz  0.0004469-0.0000697-0.0003258-0.0005264-0.0009973-0.0014268
  59 h     dx -0.0002113 0.0001380 0.0002100-0.0001804 0.0005190 0.0007399
           dy -0.0001182-0.0000037-0.0000081-0.0002775-0.0002424 0.0001983
           dz -0.0000359 0.0000814-0.0001689 0.0002994-0.0002369-0.0007462
  60 h     dx  0.0002484-0.0001200 0.0007484-0.0007270-0.0004490-0.0003504
           dy -0.0003772-0.0002548-0.0013997 0.0006594-0.0000316 0.0000751
           dz  0.0009422-0.0014245-0.0004548 0.0004041 0.0004899 0.0002241
  61 h     dx -0.0001344 0.0005709 0.0006114-0.0014515-0.0009651-0.0010341
           dy  0.0003873 0.0000116 0.0004812 0.0006574 0.0005831 0.0005667
           dz  0.0004786 0.0006431-0.0003579-0.0005597-0.0003360-0.0005049
  62 h     dx  0.0012650-0.0011752 0.0001361-0.0001717 0.0002761-0.0000874
           dy -0.0010946-0.0014408 0.0001893 0.0006491-0.0000344 0.0007320
           dz -0.0000997 0.0006728-0.0000883-0.0004214-0.0005670-0.0004665
  63 h     dx  0.0000498-0.0003408 0.0005600-0.0009601-0.0010800-0.0004893
           dy  0.0001544-0.0000973 0.0002410 0.0000115 0.0002004 0.0004859
           dz  0.0003474-0.0001024 0.0002561 0.0009452 0.0012651-0.0000138
  64 h     dx -0.0000358-0.0002289 0.0003940-0.0005866-0.0004629-0.0003821
           dy -0.0003165 0.0004448-0.0009244 0.0007353 0.0001266 0.0002103
           dz -0.0000893 0.0000840-0.0007171 0.0005430 0.0000162-0.0000593
  65 h     dx -0.0000928 0.0001239-0.0000159-0.0001198-0.0000358 0.0003172
           dy -0.0001307-0.0000251-0.0000027-0.0002365-0.0002879-0.0000321
           dz  0.0000834 0.0001728-0.0001962 0.0005066 0.0008760-0.0006982
  66 h     dx  0.0000285-0.0000184-0.0000483 0.0000055-0.0000974-0.0004544
           dy -0.0001597-0.0000681 0.0000375-0.0001067-0.0001339 0.0001995
           dz  0.0001054 0.0000784-0.0000264-0.0001542 0.0013960-0.0008199
  67 h     dx  0.0000937 0.0000591 0.0001282-0.0000349 0.0009068 0.0005057
           dy -0.0000725-0.0000030-0.0000317-0.0000708-0.0000168 0.0001697
           dz -0.0000008 0.0000305-0.0000022-0.0000025 0.0003142 0.0001430
  68 h     dx  0.0001328 0.0000428-0.0000384 0.0000044 0.0009839-0.0000062
           dy  0.0000724-0.0000152 0.0000383 0.0001892-0.0005064 0.0003167
           dz  0.0003424 0.0000798 0.0000446 0.0003635 0.0019810-0.0000442
  69 h     dx  0.0000204-0.0000290-0.0000096 0.0000236-0.0002063-0.0001452
           dy  0.0000719 0.0000133 0.0000492-0.0001564 0.0004195 0.0001479
           dz  0.0001216-0.0000494-0.0000003 0.0001636-0.0007429-0.0003668
  70 h     dx  0.0002907-0.0000467 0.0001266-0.0002526-0.0019935-0.0006187
           dy -0.0001574-0.0000072-0.0001062-0.0002193 0.0001672-0.0000679
           dz  0.0000860-0.0000494 0.0000873-0.0002587-0.0010623-0.0005007
  71 h     dx  0.0000563-0.0000894 0.0000496-0.0003452-0.0011276-0.0001228
           dy  0.0001044-0.0000108 0.0000668 0.0001508 0.0000257 0.0000167
           dz  0.0000374-0.0000051 0.0000144-0.0001370 0.0002250 0.0000021
  72 h     dx -0.0000527-0.0002090 0.0002457-0.0006544 0.0003250 0.0001278
           dy -0.0000057 0.0002890 0.0009631-0.0005522-0.0000359 0.0001365
           dz -0.0001948-0.0003245-0.0010741 0.0004481-0.0008350 0.0000381
  73 h     dx  0.0007982 0.0004733 0.0002951-0.0001157-0.0000060 0.0000890
           dy -0.0000634-0.0018222 0.0002923-0.0006687 0.0003153-0.0003845
           dz  0.0003176 0.0005408 0.0008358 0.0000486 0.0003027-0.0000467
  74 h     dx -0.0002162-0.0002010 0.0004804-0.0017752 0.0011877-0.0000491
           dy -0.0003915 0.0000734-0.0006853-0.0006815 0.0007124 0.0000564
           dz -0.0002339-0.0003871-0.0004624 0.0001162-0.0001667-0.0000153
  75 h     dx  0.0008054 0.0013689 0.0007519 0.0000708 0.0001655 0.0001518
           dy  0.0009079-0.0010168-0.0008897-0.0006981 0.0003602-0.0001754
           dz  0.0003716-0.0006841-0.0000628-0.0003157 0.0001253-0.0003652
  76 h     dx -0.0008305-0.0008203 0.0000166 0.0002701-0.0004929-0.0000722
           dy  0.0001661 0.0003416-0.0000718 0.0001898-0.0002427-0.0003067
           dz  0.0007649 0.0004109-0.0003554-0.0003831 0.0008037-0.0006129
  77 h     dx  0.0000607-0.0002417-0.0002987-0.0004120 0.0003967-0.0003297
           dy -0.0009603-0.0002789 0.0000623-0.0000990 0.0003362-0.0000224
           dz  0.0001257 0.0001894-0.0003119-0.0011984 0.0015619-0.0009898
  78 h     dx  0.0007172 0.0004989 0.0007664 0.0000300-0.0000223-0.0000375
           dy  0.0006931 0.0006349-0.0002278-0.0000462 0.0001854-0.0000258
           dz  0.0013109-0.0002059-0.0013438-0.0001673 0.0002143-0.0001951
  79 h     dx -0.0001669 0.0001835 0.0000959 0.0001290-0.0001492 0.0000375
           dy -0.0006298-0.0008564-0.0001681-0.0000139-0.0000646-0.0000231
           dz -0.0007558-0.0007308 0.0001633-0.0000962-0.0000555-0.0000568
  80 h     dx -0.0004782 0.0000422-0.0000949-0.0001236 0.0000195-0.0000325
           dy -0.0003697-0.0004880-0.0000325-0.0000301 0.0000070-0.0000153
           dz  0.0003520 0.0005754 0.0004691 0.0002978-0.0000935 0.0001542
  81 h     dx  0.0000466 0.0000030-0.0000299 0.0000509-0.0000117 0.0000064
           dy -0.0000280-0.0004478-0.0000075-0.0000743 0.0000052-0.0000431
           dz -0.0002574-0.0001689-0.0000578-0.0001300 0.0000486-0.0000628
  82 h     dx  0.0000508 0.0000558 0.0001164 0.0000583-0.0000048 0.0000538
           dy  0.0000288-0.0000583 0.0000408 0.0000344-0.0000110 0.0000144
           dz -0.0000219 0.0000442 0.0000357-0.0000196 0.0000017-0.0000045
  83 h     dx  0.0000219 0.0000516-0.0000417-0.0000096-0.0000017-0.0000133
           dy  0.0001375-0.0002057 0.0000782 0.0000766-0.0000132 0.0000482
           dz  0.0003214 0.0000046 0.0001020 0.0002413-0.0000715 0.0001185
  84 h     dx  0.0000633 0.0000310 0.0001094 0.0000613 0.0000003 0.0000408
           dy -0.0000088-0.0000266-0.0000598-0.0000294 0.0000017-0.0000250
           dz -0.0000671 0.0000009-0.0000075-0.0000364-0.0000013-0.0000117
  85 h     dx  0.0001098-0.0000154 0.0001440 0.0000846-0.0000140 0.0000530
           dy -0.0000223 0.0000462-0.0000047-0.0000096 0.0000110-0.0000013
           dz  0.0002733 0.0000141 0.0002106 0.0001863-0.0000221 0.0001093
  86 h     dx  0.0000822-0.0000309 0.0001235 0.0000791-0.0000134 0.0000392
           dy  0.0000299-0.0000275 0.0000626 0.0000442-0.0000143 0.0000344
           dz -0.0000620-0.0000272 0.0000068-0.0000288 0.0000055-0.0000041
  87 h     dx -0.0000181 0.0001358-0.0000070 0.0000246 0.0000027-0.0000014
           dy  0.0003154-0.0004393-0.0001288 0.0001538-0.0000236 0.0000806
           dz -0.0002553-0.0000343-0.0000600-0.0000832-0.0000142-0.0000585
  88 h     dx  0.0000726 0.0000167-0.0000144 0.0000168-0.0000041 0.0000063
           dy -0.0001637-0.0002232-0.0001863-0.0001487 0.0000016-0.0000909
           dz  0.0002830-0.0000327 0.0000351 0.0001985 0.0000055 0.0001100
  89 h     dx  0.0000749-0.0000680 0.0001152 0.0000644-0.0000066 0.0000546
           dy  0.0000142-0.0000362-0.0000339-0.0000011-0.0000101-0.0000011
           dz -0.0000044-0.0000772 0.0000001-0.0000329 0.0000074-0.0000090
  90 h     dx  0.0007483-0.0004193 0.0005563 0.0000064 0.0000037-0.0000693
           dy -0.0006763-0.0000845 0.0007929 0.0000539 0.0000364 0.0001235
           dz  0.0011253 0.0009790-0.0009528-0.0001418-0.0000299-0.0002315
  91 h     dx -0.0006931-0.0001179-0.0000312-0.0001049-0.0000122-0.0000238
           dy  0.0002616-0.0001534-0.0002507-0.0001053 0.0000102-0.0000609
           dz  0.0005576-0.0006405 0.0002137 0.0002789 0.0000245 0.0001799
  92 h     dx -0.0002005-0.0001197 0.0000503 0.0000605 0.0000924 0.0000690
           dy  0.0011017-0.0008757-0.0001539 0.0001239-0.0000183 0.0000734
           dz -0.0005172 0.0002810 0.0002402-0.0001041 0.0000240-0.0000708
  93 h     dx  0.0002497-0.0000895 0.0001022 0.0001706-0.0000388 0.0000934
           dy  0.0002284-0.0000718 0.0000834 0.0001323-0.0000215 0.0000726
           dz  0.0000852-0.0000734-0.0000113 0.0000219-0.0000071 0.0000087
  94 h     dx  0.0000675 0.0000670-0.0000193 0.0000362 0.0000082-0.0000019
           dy -0.0000404-0.0000426-0.0000327-0.0000289 0.0000027-0.0000144
           dz  0.0001572 0.0000401 0.0000443 0.0000928-0.0000032 0.0000456
  95 h     dx -0.0000547-0.0000180-0.0000109-0.0000644 0.0000283-0.0000291
           dy  0.0000958-0.0000764-0.0000254 0.0000128-0.0000032-0.0000034
           dz  0.0000935-0.0001402 0.0000002 0.0000324-0.0000125 0.0000215
  96 h     dx -0.0002828-0.0003488-0.0003010-0.0001308 0.0000332-0.0000647
           dy -0.0002868-0.0006399-0.0003176-0.0001333 0.0000791-0.0000697
           dz  0.0003476 0.0007509 0.0008319 0.0001754-0.0000270 0.0000815
  97 h     dx  0.0003160 0.0005415 0.0006587 0.0002348-0.0000596 0.0001276
           dy  0.0002366-0.0001254 0.0000822 0.0001486-0.0000517 0.0000905
           dz -0.0000025 0.0001284 0.0000945-0.0001216 0.0000284-0.0000620
  98 h     dx -0.0000661-0.0000621-0.0002647-0.0000896 0.0000136-0.0000509
           dy  0.0000776-0.0002476-0.0001138-0.0000683 0.0000074-0.0000398
           dz  0.0001084-0.0000928-0.0001222 0.0000334-0.0000380 0.0000004
  99 h     dx -0.0006121 0.0002454 0.0011602-0.0001592-0.0000401-0.0000453
           dy  0.0000138-0.0000771-0.0010331 0.0000506-0.0000489-0.0000461
           dz  0.0012989-0.0009417 0.0001858 0.0001626 0.0000292 0.0001110
 100 h     dx  0.0008401 0.0001955-0.0003430 0.0002420-0.0000305 0.0000791
           dy  0.0002291-0.0008162 0.0000735 0.0000536 0.0000258 0.0000516
           dz -0.0000555-0.0000550-0.0005008-0.0001785 0.0000365-0.0001227
 101 h     dx -0.0001488-0.0003161 0.0008285-0.0001036 0.0000670-0.0000144
           dy -0.0006159-0.0006364 0.0015501-0.0001476 0.0000227 0.0000018
           dz  0.0011495 0.0009083 0.0007668 0.0001142-0.0000613 0.0000708
 102 h     dx -0.0000065 0.0000252-0.0000005-0.0000342 0.0000057-0.0000267
           dy -0.0001238-0.0001158-0.0000118-0.0000539-0.0000069-0.0000218
           dz  0.0000675 0.0001267 0.0000599 0.0000350 0.0000130 0.0000330
 103 h     dx  0.0000697-0.0000113-0.0000309 0.0000349-0.0000055 0.0000055
           dy  0.0000430-0.0000275 0.0000039 0.0000233-0.0000054 0.0000110
           dz  0.0001546-0.0000079 0.0000413 0.0000905-0.0000121 0.0000482
 104 h     dx  0.0002554 0.0001716 0.0001692 0.0001774-0.0000093 0.0001089
           dy -0.0001385-0.0000659-0.0000665-0.0000804 0.0000068-0.0000401
           dz -0.0000001 0.0000721-0.0000102-0.0000154 0.0000034-0.0000103
 105 h     dx  0.0004166-0.0004111 0.0004171 0.0002652-0.0000006 0.0001617
           dy -0.0000457-0.0002773-0.0000223-0.0000383-0.0000030-0.0000312
           dz -0.0000182-0.0002375 0.0000488-0.0001307 0.0000179-0.0000802
 106 h     dx -0.0005112 0.0004603-0.0002465-0.0001659-0.0000249-0.0000877
           dy  0.0001865-0.0003185-0.0000617 0.0000441 0.0000370 0.0000277
           dz  0.0004805-0.0008017 0.0004613 0.0001948 0.0000054 0.0000953
 107 h     dx -0.0000363 0.0001359-0.0001488-0.0000992 0.0000173-0.0000566
           dy -0.0000435-0.0002060-0.0000545 0.0000234-0.0000206 0.0000211
           dz  0.0000689 0.0000615-0.0000387 0.0000307 0.0000286 0.0000123

   ATOM              3 y                           4 s 
                  dx        dy        dz        dx        dy        dz
   3 y     dx  0.1576219
           dy  0.0138606 0.0940559
           dz -0.0203862-0.0171863 0.1678354
   4 s     dx  0.0035688 0.0000178 0.0024417 0.0564815
           dy -0.0007824 0.0004106-0.0004619 0.0015289 0.0276563
           dz  0.0052002 0.0003320 0.0028935 0.0028800-0.0265573 0.1775671
   5 s     dx  0.0052115-0.0004713 0.0062353 0.0072190-0.0017628 0.0108527
           dy  0.0003015 0.0004143 0.0009614-0.0001177 0.0004600 0.0011500
           dz -0.0000692 0.0003068-0.0011771 0.0045341 0.0011482-0.0008715
   6 s     dx -0.0129835-0.0069693-0.0059839-0.0021740-0.0008705-0.0095557
           dy -0.0107571-0.0278702-0.0153946 0.0003031 0.0006479 0.0081208
           dz -0.0076951-0.0128141-0.0177816-0.0040040 0.0036211 0.0003012
   7 s     dx -0.0206899 0.0133260-0.0062526-0.0023579 0.0024170-0.0061301
           dy  0.0178498-0.0280375 0.0086361-0.0013390 0.0053408-0.0093808
           dz -0.0058783 0.0055093-0.0100612-0.0032873-0.0026759-0.0043302
   8 c     dx  0.0001591 0.0000213 0.0001005-0.0003836-0.0009965-0.0001596
           dy  0.0003364 0.0000089 0.0002311-0.0013420 0.0001423-0.0017330
           dz  0.0000961 0.0000194 0.0001367-0.0002588-0.0008202-0.0014352
   9 c     dx  0.0004007-0.0000527 0.0003839-0.0012624-0.0003979-0.0003941
           dy  0.0001008-0.0000200 0.0000706-0.0010214-0.0017334 0.0002397
           dz  0.0002878-0.0000057 0.0001521-0.0007221 0.0009626-0.0008929
  10 c     dx  0.0001278 0.0000673 0.0000516 0.0003067 0.0008128-0.0004644
           dy  0.0002988-0.0000248 0.0002467-0.0003847-0.0001275 0.0005003
           dz  0.0001830-0.0000363 0.0001969-0.0007911-0.0002179 0.0000437
  11 c     dx -0.0000638-0.0000036-0.0000206-0.0002909-0.0001433-0.0006026
           dy  0.0002743 0.0000144 0.0002224-0.0013596 0.0012773 0.0006973
           dz -0.0000967-0.0000033-0.0001072-0.0012149 0.0005774 0.0010843
  12 c     dx -0.0001623 0.0000134-0.0001274-0.0004512 0.0005281 0.0010545
           dy  0.0002103-0.0000173 0.0002044-0.0008201 0.0002102-0.0005468
           dz  0.0001096 0.0000068 0.0000512 0.0007198-0.0002292 0.0004296
  13 c     dx  0.0003686 0.0000876 0.0002404-0.0012783 0.0007756-0.0001213
           dy -0.0002736 0.0000107-0.0002213 0.0016839-0.0023657 0.0010997
           dz  0.0000481-0.0000230-0.0000783 0.0002878-0.0004163-0.0003809
  14 c     dx  0.0002053-0.0000409 0.0002252 0.0002487-0.0007577 0.0004381
           dy -0.0003149-0.0000280-0.0002209 0.0000724 0.0001503-0.0004693
           dz  0.0001169 0.0000768 0.0002087-0.0011910 0.0006896-0.0009245
  15 c     dx  0.0000201 0.0000075 0.0000287-0.0008020 0.0004866-0.0010122
           dy -0.0003178-0.0000288-0.0002576 0.0014338 0.0010566-0.0005756
           dz -0.0000517 0.0000380-0.0000946-0.0005512 0.0003330-0.0000819
  16 c     dx -0.0000726-0.0000044-0.0000912-0.0001062 0.0001477 0.0000501
           dy -0.0001715-0.0000560-0.0001836 0.0009076 0.0009360 0.0002139
           dz -0.0001076-0.0000381-0.0001001 0.0008451-0.0001804 0.0007703
  17 c     dx  0.0000346-0.0000036 0.0000280-0.0000743-0.0001829 0.0004078
           dy -0.0003356 0.0000063-0.0002645 0.0010315-0.0001124 0.0012964
           dz -0.0000891 0.0000056-0.0000921 0.0006317-0.0002483 0.0006193
  18 c     dx -0.0135249-0.0069775 0.0061513-0.0002989 0.0002493-0.0005845
           dy -0.0042866-0.0074904 0.0048691 0.0001515 0.0000465-0.0003286
           dz  0.0058659 0.0097801-0.0056162 0.0001316-0.0001667 0.0002514
  19 c     dx -0.0183103-0.0084680 0.0062003-0.0000360 0.0000005 0.0000309
           dy -0.0083295-0.0028702-0.0042546-0.0001101 0.0000429-0.0003312
           dz  0.0068860-0.0011111-0.0081719-0.0000000-0.0001777 0.0006323
  20 c     dx -0.0216287-0.0001547 0.0052451-0.0000719 0.0000112-0.0000537
           dy  0.0000632-0.0025369 0.0073315 0.0000741-0.0000048 0.0000885
           dz  0.0066974 0.0052035-0.0054519 0.0000072-0.0000747 0.0007220
  21 c     dx -0.0172809 0.0022063 0.0098550-0.0001992-0.0000793-0.0006657
           dy -0.0017996-0.0018450-0.0009200-0.0002236-0.0001510 0.0000671
           dz  0.0101447-0.0062532-0.0089117 0.0000436 0.0000245 0.0003454
  22 c     dx -0.0110007-0.0029548 0.0100300-0.0003146-0.0000121-0.0003283
           dy -0.0020536-0.0040895 0.0032580 0.0000000 0.0003060-0.0000203
           dz  0.0068203 0.0024614-0.0144856 0.0000411 0.0002117-0.0007963
  23 c     dx -0.0001376-0.0011007 0.0049759 0.0000952 0.0000424 0.0001591
           dy -0.0023477-0.0043255 0.0018839 0.0000853 0.0000489 0.0001096
           dz  0.0048702-0.0046584-0.0248340-0.0002138-0.0000219-0.0001989
  24 c     dx -0.0104369-0.0014072 0.0011662 0.0002375-0.0000175 0.0001131
           dy -0.0012214-0.0010841 0.0048460 0.0000313 0.0000247 0.0000359
           dz  0.0010766 0.0047639-0.0249562-0.0001023-0.0000002-0.0000279
  25 c     dx -0.0002271-0.0004062 0.0044799 0.0001275-0.0001307 0.0001473
           dy  0.0018049-0.0078079 0.0058011 0.0000536-0.0000012 0.0000179
           dz  0.0028046 0.0127009-0.0201448-0.0001949 0.0000887-0.0002280
  26 c     dx -0.0077594-0.0057680 0.0032945-0.0000897 0.0000325-0.0000984
           dy -0.0041260-0.0047575 0.0057713-0.0001170-0.0000514-0.0000413
           dz  0.0058232 0.0036252-0.0124023-0.0002997 0.0001485-0.0003730
  27 c     dx -0.0091932 0.0026744 0.0059510-0.0001196 0.0000382-0.0001162
           dy -0.0001473-0.0007241-0.0002467 0.0001717-0.0000382 0.0001350
           dz  0.0070328 0.0021511-0.0143329-0.0002079-0.0000522-0.0003585
  28 c     dx -0.0000393-0.0000301 0.0000270-0.0000109 0.0000841-0.0001767
           dy -0.0000314-0.0000039 0.0000268 0.0001463 0.0000378 0.0002091
           dz  0.0001186-0.0000180 0.0001698-0.0003054 0.0000301-0.0002969
  29 c     dx -0.0001683-0.0000010-0.0001593 0.0004161-0.0000375 0.0001276
           dy  0.0000314-0.0000029 0.0000375-0.0001198-0.0001427-0.0003071
           dz -0.0000290 0.0000009 0.0000062-0.0000671-0.0000475-0.0000197
  30 c     dx  0.0000215-0.0000116 0.0000283-0.0006660-0.0003633 0.0003757
           dy -0.0000428 0.0000881 0.0000144 0.0001574-0.0017107 0.0001353
           dz -0.0000232-0.0000074 0.0000418-0.0002923-0.0006267-0.0004220
  31 c     dx -0.0000947 0.0000018-0.0000931 0.0001910-0.0000258 0.0000807
           dy  0.0000707-0.0000098 0.0000365-0.0000546-0.0000553 0.0001846
           dz -0.0001405-0.0000239-0.0001119 0.0002062 0.0000393 0.0000829
  32 c     dx  0.0001283-0.0000125 0.0000636-0.0008146-0.0008602-0.0005309
           dy  0.0000792 0.0000243 0.0000232-0.0007968-0.0011675-0.0021050
           dz -0.0000747-0.0000134-0.0000800-0.0003257-0.0008770-0.0013282
  33 c     dx -0.0000301-0.0000059-0.0000738 0.0000500-0.0001412 0.0007339
           dy -0.0000040-0.0000031-0.0000140 0.0000312 0.0000497-0.0000512
           dz -0.0001829 0.0000085-0.0001000 0.0003527-0.0001136-0.0001234
  34 c     dx  0.0001118-0.0000509 0.0000358-0.0010098 0.0014020-0.0000314
           dy  0.0000104 0.0000354 0.0000697 0.0004713-0.0030560 0.0005241
           dz  0.0000966-0.0000437 0.0000582 0.0001587-0.0000967-0.0009786
  35 c     dx  0.0000619-0.0000881 0.0001172-0.0000781-0.0000819-0.0002036
           dy  0.0000817 0.0000327-0.0000435-0.0000471 0.0000565 0.0001757
           dz  0.0000728 0.0000289-0.0000069-0.0003700 0.0000901-0.0000537
  36 c     dx -0.0001538 0.0000035-0.0001354 0.0002585-0.0000280 0.0000436
           dy -0.0000291 0.0000051-0.0000696 0.0001811-0.0001741 0.0002852
           dz -0.0000156-0.0000128 0.0000381-0.0002987 0.0001473-0.0002090
  37 c     dx -0.0001381 0.0000122-0.0000945 0.0002358-0.0000080 0.0000291
           dy -0.0000264-0.0000114-0.0000432 0.0000569-0.0000884-0.0000452
           dz -0.0001231 0.0000021-0.0000825 0.0002300-0.0000615 0.0000742
  38 c     dx -0.0017123-0.0016839 0.0008664-0.0000931 0.0000426-0.0000893
           dy -0.0018394-0.0016250 0.0011208 0.0000211 0.0000461 0.0000868
           dz  0.0016674 0.0014775 0.0028386-0.0000895-0.0000401 0.0000381
  39 c     dx -0.0025092 0.0008445 0.0018805-0.0000485-0.0000347-0.0000313
           dy  0.0005345 0.0004195-0.0017818 0.0000277 0.0000251-0.0000328
           dz  0.0025914-0.0018185 0.0014732-0.0001174 0.0000094-0.0000006
  40 c     dx  0.0008194 0.0003974-0.0012283 0.0000675-0.0000306 0.0001159
           dy  0.0005362 0.0003229-0.0024414 0.0000858 0.0000062 0.0001051
           dz -0.0006434-0.0026374 0.0007535 0.0000309 0.0000061 0.0000745
  41 c     dx  0.0014810 0.0006997-0.0028112 0.0000933-0.0000244 0.0001888
           dy  0.0008660 0.0003628-0.0004246-0.0000020 0.0000009 0.0000089
           dz -0.0044927-0.0005315-0.0004510 0.0000414-0.0000013 0.0000400
  42 c     dx  0.0009532 0.0006421-0.0017581 0.0000976-0.0000165 0.0001455
           dy  0.0001099-0.0012564 0.0011625-0.0000571 0.0000343-0.0000751
           dz -0.0011558 0.0012763 0.0024551-0.0000120-0.0000203 0.0000470
  43 c     dx -0.0001155-0.0016373-0.0029714 0.0000425-0.0000367 0.0000973
           dy -0.0009552-0.0007410-0.0010105 0.0000824-0.0000059 0.0000184
           dz -0.0022931-0.0000472 0.0023941 0.0000961-0.0000088 0.0001405
  44 c     dx  0.0027354-0.0010259-0.0002838 0.0000130 0.0001162-0.0002367
           dy -0.0013352-0.0021212 0.0016332 0.0001598 0.0000320 0.0001444
           dz -0.0003522 0.0016911 0.0001712-0.0000273-0.0000899 0.0001082
  45 c     dx  0.0031568 0.0005504 0.0001422-0.0012893-0.0000665-0.0001117
           dy  0.0005290 0.0002878 0.0005155-0.0004964-0.0003793-0.0001377
           dz  0.0003768 0.0005326-0.0036727-0.0003802-0.0002200 0.0007658
  46 c     dx -0.0016296 0.0022956-0.0023039 0.0000868-0.0000057 0.0001166
           dy  0.0015688 0.0004270-0.0007574-0.0000690 0.0000025-0.0000201
           dz -0.0014086-0.0015196 0.0019816 0.0000611-0.0000313 0.0001227
  47 c     dx  0.0016447 0.0017786 0.0004685 0.0000588-0.0000045-0.0001250
           dy  0.0022202 0.0002169-0.0017436-0.0001102 0.0000272-0.0002130
           dz  0.0005793-0.0017684-0.0005122-0.0000728 0.0000671 0.0001194
  48 h     dx  0.0000596 0.0000093 0.0000437-0.0000936 0.0000441-0.0003692
           dy -0.0002009-0.0000098-0.0001286 0.0001605-0.0000023 0.0001485
           dz  0.0001139 0.0000041 0.0000735-0.0001336-0.0000324 0.0001502
  49 h     dx  0.0000268-0.0000162 0.0000159 0.0000073 0.0000904-0.0001077
           dy  0.0000501-0.0000061 0.0000381-0.0000797 0.0000140-0.0000322
           dz  0.0000497-0.0000072 0.0000297-0.0000354 0.0000395 0.0000255
  50 h     dx  0.0000081 0.0000107 0.0000375-0.0000138-0.0000635-0.0002451
           dy  0.0001356 0.0000074 0.0000833-0.0001927 0.0001007-0.0005044
           dz -0.0000879 0.0000109-0.0000739 0.0001036-0.0002743 0.0007795
  51 h     dx  0.0000460-0.0000157 0.0000306-0.0000037 0.0000433 0.0000216
           dy  0.0000501-0.0000021 0.0000459-0.0000788-0.0000033-0.0000521
           dz  0.0000262-0.0000028 0.0000067-0.0000009 0.0000035 0.0000426
  52 h     dx  0.0001413-0.0000048 0.0001588-0.0002033 0.0000555-0.0001936
           dy -0.0001196 0.0000015-0.0001337 0.0000682-0.0000169 0.0000317
           dz -0.0000698 0.0000085-0.0000590 0.0001874-0.0000879 0.0001968
  53 h     dx -0.0000801 0.0000139-0.0000827-0.0000740-0.0000151-0.0001662
           dy  0.0000510-0.0000031 0.0000896-0.0001207 0.0000349-0.0001258
           dz  0.0000806 0.0000095 0.0000735 0.0001108-0.0000713 0.0002081
  54 h     dx  0.0000529 0.0000104 0.0000440-0.0000373-0.0000292-0.0000091
           dy -0.0000550 0.0000002-0.0000446 0.0000476-0.0000053 0.0000290
           dz  0.0000441 0.0000068 0.0000308-0.0000137-0.0000248 0.0000054
  55 h     dx  0.0000014 0.0000038 0.0000027-0.0000505-0.0000109-0.0001391
           dy -0.0000416 0.0000105-0.0000493 0.0001383-0.0000405 0.0000672
           dz -0.0000343-0.0000061-0.0000485 0.0001001-0.0000084 0.0000722
  56 h     dx  0.0001413-0.0000033 0.0001323-0.0002384-0.0000669-0.0002775
           dy  0.0001038-0.0000068 0.0000957-0.0001085-0.0000065-0.0000996
           dz -0.0000068-0.0000053 0.0000054 0.0000243 0.0000004-0.0000150
  57 h     dx -0.0000160 0.0000134-0.0000524 0.0000579 0.0000067 0.0000870
           dy -0.0001995-0.0000073-0.0002117-0.0001893 0.0000608-0.0003676
           dz -0.0000009-0.0000122 0.0000329 0.0001525-0.0000828 0.0001449
  58 h     dx  0.0001152-0.0000143 0.0001202-0.0000442-0.0000124 0.0000305
           dy  0.0002183-0.0000158 0.0002254-0.0001492 0.0000306-0.0001032
           dz  0.0000311 0.0000044 0.0000277 0.0002317-0.0000482 0.0002820
  59 h     dx -0.0000745 0.0000041-0.0000325-0.0000929-0.0000136-0.0002136
           dy -0.0000632-0.0000005-0.0000859 0.0000538 0.0000069-0.0000109
           dz -0.0000079 0.0000009-0.0000088 0.0000927-0.0000029 0.0001280
  60 h     dx  0.0000193-0.0000113 0.0000538-0.0001256-0.0005166-0.0004374
           dy -0.0002063-0.0000165-0.0000610 0.0001180-0.0001722 0.0008774
           dz -0.0000791-0.0000657-0.0000967-0.0003192 0.0003156-0.0005101
  61 h     dx  0.0000358 0.0000427 0.0000200 0.0002717-0.0006792-0.0001069
           dy  0.0002469 0.0000030 0.0002000-0.0001012-0.0001956-0.0002765
           dz  0.0000597 0.0000206 0.0001071 0.0001421 0.0000553 0.0003078
  62 h     dx  0.0000013-0.0000525-0.0000495-0.0000873 0.0001352-0.0003710
           dy -0.0001250-0.0000054-0.0001992-0.0000840 0.0004246-0.0005425
           dz  0.0000209 0.0000394 0.0000084 0.0002513-0.0000315 0.0003855
  63 h     dx  0.0000539 0.0000112 0.0000245 0.0001360-0.0001564-0.0010777
           dy  0.0002056 0.0000022 0.0001437-0.0001170 0.0000554-0.0006076
           dz  0.0002023-0.0000030 0.0001259-0.0001405-0.0000434-0.0002663
  64 h     dx  0.0000526 0.0000095 0.0000198 0.0000144-0.0000892-0.0008256
           dy -0.0001952-0.0000180-0.0001343-0.0000786-0.0004950 0.0008198
           dz -0.0001596-0.0000153-0.0000511 0.0000545-0.0001371 0.0002063
  65 h     dx -0.0000187 0.0000061-0.0000232 0.0000309-0.0000753 0.0002408
           dy -0.0000632-0.0000162-0.0000294 0.0000953 0.0001315-0.0000937
           dz -0.0000683 0.0000085-0.0000824 0.0001307-0.0001713 0.0006248
  66 h     dx -0.0000223-0.0000103-0.0000099 0.0000119 0.0000086 0.0001033
           dy -0.0000699-0.0000064-0.0000353 0.0001073 0.0000139-0.0001159
           dz  0.0000036 0.0000053 0.0000063-0.0000059-0.0000618 0.0001205
  67 h     dx  0.0000740 0.0000093 0.0000715-0.0000596-0.0000300-0.0001505
           dy -0.0000413 0.0000066-0.0000283 0.0000459 0.0000104 0.0000008
           dz -0.0000022 0.0000095 0.0000044 0.0000004-0.0000133 0.0000180
  68 h     dx  0.0000541-0.0000010 0.0000319-0.0000461-0.0000020 0.0000631
           dy  0.0000648-0.0000034 0.0000404-0.0000524 0.0000284-0.0000270
           dz  0.0001652 0.0000005 0.0001197-0.0001764-0.0000098 0.0000152
  69 h     dx  0.0000089-0.0000005-0.0000050-0.0000212-0.0000027 0.0000479
           dy  0.0000393 0.0000054 0.0000314-0.0000552-0.0000138-0.0000211
           dz  0.0000704-0.0000062 0.0000324-0.0000828 0.0000129 0.0000591
  70 h     dx  0.0001549-0.0000065 0.0001195-0.0002087 0.0000645-0.0000429
           dy -0.0000938-0.0000005-0.0000775 0.0000870-0.0000267 0.0000824
           dz  0.0000501-0.0000052 0.0000465-0.0001180 0.0000465-0.0000275
  71 h     dx  0.0000472-0.0000081 0.0000356-0.0000614 0.0000610-0.0000395
           dy  0.0000597-0.0000019 0.0000617-0.0000984-0.0000041-0.0000496
           dz  0.0000078 0.0000068 0.0000080-0.0000192-0.0000046 0.0000036
  72 h     dx  0.0000597 0.0000150-0.0000231 0.0000075 0.0004664-0.0003054
           dy  0.0001729-0.0000020 0.0000900-0.0000453-0.0005862-0.0009781
           dz  0.0000038 0.0000128-0.0000877-0.0002545-0.0005638 0.0010095
  73 h     dx -0.0001212 0.0000646-0.0000285-0.0002634 0.0000523-0.0002902
           dy  0.0002332-0.0000645 0.0000504 0.0000210 0.0001471 0.0001246
           dz -0.0001173 0.0000780 0.0000051-0.0000234 0.0002765-0.0006664
  74 h     dx  0.0000926-0.0000181 0.0000337 0.0002799 0.0007693-0.0004991
           dy -0.0003036-0.0000233-0.0001799 0.0001262-0.0005534 0.0005225
           dz  0.0000095-0.0000201 0.0000093 0.0000306-0.0003342 0.0005881
  75 h     dx -0.0000842 0.0001676-0.0002236-0.0000446 0.0000492-0.0002363
           dy  0.0001006-0.0000652 0.0001544 0.0001233-0.0000432 0.0004330
           dz -0.0000378-0.0000251 0.0001456 0.0000669 0.0001788 0.0000513
  76 h     dx -0.0000915-0.0000426 0.0001267-0.0000750 0.0000614-0.0001834
           dy  0.0000815-0.0000106 0.0001292-0.0000404-0.0000213 0.0000410
           dz  0.0000668-0.0000086 0.0000965 0.0002250-0.0001091 0.0003099
  77 h     dx  0.0000878-0.0000298 0.0001074 0.0001394-0.0000602 0.0001755
           dy -0.0002289-0.0000014-0.0002510 0.0000470 0.0000149-0.0000759
           dz -0.0000414-0.0000156-0.0000540 0.0003325-0.0000856 0.0002917
  78 h     dx -0.0002807 0.0000923-0.0005032-0.0001125-0.0000028-0.0001040
           dy  0.0002218-0.0001673-0.0001533-0.0000764 0.0000037-0.0000582
           dz  0.0004477 0.0000233 0.0004207-0.0000230-0.0000680 0.0001640
  79 h     dx -0.0003354 0.0004774-0.0000712-0.0000372-0.0000002-0.0000669
           dy  0.0000431-0.0004323 0.0010490 0.0000492-0.0000171 0.0001229
           dz  0.0000855-0.0002293 0.0001657 0.0000949-0.0000128 0.0001494
  80 h     dx -0.0005028 0.0007495-0.0017238 0.0000992 0.0000004 0.0000919
           dy  0.0003787-0.0005117 0.0010580 0.0000245-0.0000099 0.0000857
           dz -0.0002128 0.0000274-0.0000587-0.0001562 0.0000457-0.0002637
  81 h     dx  0.0002095 0.0005259-0.0001022-0.0000347 0.0000167-0.0000116
           dy -0.0000413-0.0013889 0.0001105 0.0000371-0.0000155 0.0000594
           dz  0.0001694-0.0003882-0.0000312 0.0000870-0.0000031 0.0000954
  82 h     dx -0.0004971-0.0003228 0.0004484-0.0000222 0.0000096-0.0000795
           dy -0.0003260-0.0002850 0.0002496-0.0000130 0.0000018-0.0000312
           dz -0.0007643-0.0003445 0.0001848 0.0000239-0.0000037-0.0000078
  83 h     dx -0.0002891-0.0000179 0.0001321 0.0000023 0.0000013 0.0000078
           dy -0.0006225-0.0013441 0.0013959-0.0000431 0.0000088-0.0000777
           dz -0.0002827-0.0002426 0.0012787-0.0001379 0.0000424-0.0001847
  84 h     dx -0.0002804 0.0000312 0.0003405-0.0000345 0.0000092-0.0000622
           dy  0.0003916-0.0000246-0.0006571 0.0000077-0.0000076 0.0000443
           dz -0.0001926 0.0000510 0.0002408 0.0000250 0.0000035 0.0000160
  85 h     dx -0.0015670-0.0004442 0.0011036-0.0000411 0.0000155-0.0000912
           dy  0.0000104-0.0000931 0.0000548 0.0000072-0.0000017 0.0000042
           dz -0.0008572-0.0003592 0.0010892-0.0001020 0.0000229-0.0001635
  86 h     dx -0.0005322-0.0003479 0.0003027-0.0000367 0.0000094-0.0000777
           dy -0.0003699-0.0002048 0.0005528-0.0000153 0.0000087-0.0000581
           dz -0.0006609-0.0004246 0.0003781 0.0000252 0.0000059 0.0000015
  87 h     dx  0.0002980-0.0001794-0.0000391-0.0000232-0.0000147 0.0000042
           dy  0.0002841-0.0012154-0.0006594-0.0000772 0.0000134-0.0001180
           dz  0.0002955-0.0001019-0.0001156 0.0000611-0.0000124 0.0000690
  88 h     dx -0.0004904 0.0000429 0.0005857-0.0000144 0.0000038-0.0000190
           dy  0.0007466-0.0003446-0.0020321 0.0000898-0.0000147 0.0001330
           dz  0.0000649-0.0004931 0.0004855-0.0001109 0.0000100-0.0001528
  89 h     dx -0.0007923 0.0000528 0.0006655-0.0000195 0.0000201-0.0000874
           dy  0.0003814-0.0001799-0.0001758-0.0000021-0.0000000 0.0000070
           dz -0.0005564 0.0000889 0.0000748 0.0000277 0.0000038 0.0000056
  90 h     dx -0.0001025 0.0001034-0.0004328-0.0001017-0.0000102-0.0000459
           dy -0.0002947-0.0001477-0.0001612 0.0000489 0.0000170-0.0000214
           dz  0.0003474-0.0001845 0.0004944-0.0000193 0.0000005 0.0001564
  91 h     dx -0.0003423-0.0002097-0.0015639 0.0001080-0.0000163 0.0001090
           dy -0.0002341-0.0001419-0.0015648 0.0000442-0.0000116 0.0000242
           dz -0.0003170-0.0001448-0.0006068-0.0001334 0.0000159-0.0002766
  92 h     dx -0.0002213-0.0004627 0.0000487-0.0000049 0.0000210-0.0000245
           dy -0.0000878-0.0001406-0.0011708-0.0001030 0.0000021-0.0002248
           dz  0.0001072 0.0001270-0.0002236 0.0000607-0.0000170 0.0000965
  93 h     dx  0.0009947 0.0000753-0.0008910-0.0001021 0.0000173-0.0001405
           dy  0.0009513-0.0002671-0.0010343-0.0000839 0.0000109-0.0001016
           dz  0.0006398-0.0002153-0.0012913-0.0000166-0.0000007-0.0000154
  94 h     dx  0.0005408 0.0003976-0.0006640-0.0000287 0.0000048 0.0000106
           dy -0.0000703-0.0001031 0.0001048 0.0000144 0.0000001 0.0000229
           dz  0.0004194 0.0001001-0.0005246-0.0000674 0.0000059-0.0000510
  95 h     dx -0.0001969-0.0003754-0.0002600 0.0000316-0.0000102 0.0000475
           dy  0.0003058-0.0005215-0.0009851-0.0000194-0.0000080 0.0000168
           dz -0.0000250-0.0005100-0.0001884-0.0000226-0.0000019-0.0000320
  96 h     dx -0.0001621-0.0002496 0.0002599 0.0000878 0.0000232 0.0002308
           dy  0.0006288-0.0002095 0.0001912 0.0001225-0.0000400 0.0001071
           dz -0.0009928-0.0000316-0.0001831-0.0000317 0.0001920-0.0003980
  97 h     dx -0.0005063 0.0000567-0.0000318-0.0000916 0.0001408-0.0003298
           dy  0.0018806-0.0004607-0.0005692-0.0000670 0.0000031-0.0001347
           dz -0.0007622-0.0003718 0.0001048 0.0000697 0.0000061 0.0000583
  98 h     dx  0.0000323-0.0000247-0.0001026 0.0000269-0.0000699 0.0001702
           dy  0.0005714-0.0008061-0.0004968 0.0000087-0.0000486 0.0000992
           dz  0.0004968 0.0000425-0.0002240-0.0000685-0.0000362 0.0000787
  99 h     dx  0.0000934 0.0001022 0.0000776 0.0002302 0.0000727-0.0002736
           dy -0.0007322-0.0002417 0.0002559-0.0004804-0.0000398 0.0006202
           dz -0.0009268-0.0003972-0.0004910-0.0001541-0.0000033-0.0005485
 100 h     dx -0.0011879-0.0001727-0.0001875-0.0005226-0.0000193-0.0001909
           dy  0.0000261-0.0000903-0.0000205 0.0000015 0.0000322-0.0000779
           dz -0.0020650-0.0003602-0.0000879 0.0000802-0.0000388 0.0002507
 101 h     dx -0.0001548-0.0001259 0.0001263-0.0005552-0.0000520-0.0004635
           dy  0.0009372 0.0000395-0.0001002 0.0007651 0.0001768-0.0005529
           dz -0.0007093 0.0002432-0.0005099-0.0000151 0.0002122-0.0007143
 102 h     dx -0.0004225 0.0006531-0.0005872 0.0000134-0.0000027 0.0000370
           dy -0.0001994-0.0008550 0.0009375 0.0000498-0.0000002 0.0000109
           dz -0.0001871 0.0003737-0.0000859-0.0000277 0.0000113-0.0000360
 103 h     dx  0.0006640-0.0000763-0.0006443-0.0000309-0.0000081 0.0000050
           dy  0.0002131-0.0000966-0.0001964-0.0000107 0.0000029-0.0000153
           dz  0.0003855 0.0001268-0.0003915-0.0000641 0.0000035-0.0000546
 104 h     dx  0.0010305 0.0008099-0.0010577-0.0001087 0.0000242-0.0001461
           dy -0.0005663-0.0007365 0.0007930 0.0000542-0.0000079 0.0000568
           dz  0.0002188 0.0005579-0.0008691 0.0000080-0.0000018 0.0000140
 105 h     dx  0.0001793 0.0002123-0.0001924-0.0000932-0.0000117-0.0003519
           dy -0.0013685-0.0011787 0.0003335 0.0000313-0.0000389 0.0000063
           dz -0.0012318-0.0001439 0.0002792 0.0000844-0.0000425 0.0000525
 106 h     dx  0.0000201 0.0002198 0.0003843 0.0000934-0.0000370 0.0002568
           dy -0.0003506-0.0002523-0.0001116-0.0000574-0.0000404 0.0000423
           dz -0.0009669-0.0003482-0.0003018-0.0000350-0.0000548-0.0004061
 107 h     dx  0.0000730 0.0004522-0.0001382 0.0000112 0.0000036 0.0001585
           dy -0.0002204-0.0012046 0.0001444 0.0000207 0.0000058-0.0000515
           dz  0.0002618-0.0000493-0.0002013-0.0000627-0.0000103 0.0000452

   ATOM              5 s                           6 s 
                  dx        dy        dz        dx        dy        dz
   5 s     dx  0.1491271
           dy  0.0266629 0.0324244
           dz -0.0463497-0.0201787 0.0814083
   6 s     dx -0.0084615 0.0005657 0.0007289 0.0882445
           dy  0.0073066 0.0057084-0.0037195-0.0634554 0.1366659
           dz -0.0041021-0.0036077 0.0014202 0.0223030-0.0045326 0.0367458
   7 s     dx -0.0053319-0.0031415-0.0009746 0.0083236-0.0014199 0.0045081
           dy -0.0090572-0.0001297 0.0033499 0.0034282-0.0054998 0.0009193
           dz -0.0079600 0.0022033 0.0040031 0.0060338-0.0031780 0.0039873
   8 c     dx -0.0006162 0.0002106-0.0001315-0.0002634-0.0000354-0.0000531
           dy  0.0001482 0.0000831-0.0009928-0.0005714 0.0002518-0.0000483
           dz -0.0002443 0.0003778 0.0006756-0.0002630 0.0004267 0.0000032
   9 c     dx -0.0016226 0.0007213-0.0000384-0.0004168 0.0005508-0.0003045
           dy -0.0001076-0.0005971-0.0009933 0.0001752-0.0004566-0.0001115
           dz  0.0001052-0.0008160-0.0012319-0.0003698 0.0000119 0.0000775
  10 c     dx -0.0006677-0.0015928-0.0000830-0.0002127 0.0002723-0.0000637
           dy -0.0024573-0.0006871-0.0002000-0.0003731 0.0005034-0.0002933
           dz -0.0004809-0.0002991-0.0006003-0.0001858 0.0000144-0.0002883
  11 c     dx  0.0011682 0.0003682 0.0000343 0.0000803-0.0002819 0.0000080
           dy -0.0007011-0.0001796 0.0000094-0.0003594 0.0005049-0.0001404
           dz -0.0001536 0.0009539-0.0007803 0.0001834-0.0001688 0.0000567
  12 c     dx  0.0000287 0.0004594-0.0008084 0.0002854-0.0003924 0.0000282
           dy -0.0002161 0.0019919-0.0012885-0.0003348 0.0004143-0.0000347
           dz -0.0007671-0.0000808 0.0000855-0.0001271 0.0000561-0.0000771
  13 c     dx -0.0008993 0.0002044-0.0004947-0.0003375 0.0001381-0.0002521
           dy -0.0011044 0.0002309 0.0002186 0.0001639-0.0001546 0.0001661
           dz  0.0010473-0.0005853 0.0000713 0.0000351 0.0000513-0.0000142
  14 c     dx -0.0010811 0.0005765-0.0001723-0.0002410 0.0001105-0.0000506
           dy  0.0022221-0.0022346 0.0003333 0.0002969-0.0001079 0.0000796
           dz  0.0001925 0.0002331-0.0006923-0.0002165 0.0000484-0.0001695
  15 c     dx  0.0006106-0.0001674-0.0001190-0.0000007-0.0000154-0.0000567
           dy  0.0017206 0.0000833 0.0004049 0.0003581-0.0000674 0.0001092
           dz  0.0005243 0.0000978-0.0002746 0.0000137-0.0000142 0.0000052
  16 c     dx  0.0007849-0.0000990-0.0000357 0.0000965-0.0000078 0.0000564
           dy  0.0009027 0.0006267 0.0010963 0.0001889 0.0000287 0.0001243
           dz -0.0003422 0.0004343 0.0002836 0.0000965 0.0000154 0.0000974
  17 c     dx -0.0010764 0.0002884-0.0006502-0.0000573 0.0000161-0.0000026
           dy  0.0001803 0.0003531 0.0014455 0.0002335-0.0001372 0.0002395
           dz -0.0009385 0.0001454 0.0007482 0.0000420-0.0000826 0.0000937
  18 c     dx -0.0004710-0.0000796-0.0000727-0.0000982-0.0001087-0.0005237
           dy -0.0000726-0.0000077 0.0000212 0.0006375 0.0005165 0.0000213
           dz  0.0001541 0.0000371 0.0000662 0.0001614 0.0009795-0.0001271
  19 c     dx  0.0001117 0.0000214-0.0000173-0.0000965-0.0008890-0.0017701
           dy -0.0002762-0.0000063-0.0000295-0.0003641 0.0007134 0.0001189
           dz  0.0002641 0.0000282 0.0001117-0.0006751 0.0006786 0.0013984
  20 c     dx  0.0000066 0.0000158-0.0000248 0.0004097-0.0004532-0.0003280
           dy  0.0001692 0.0000728 0.0000193-0.0004806-0.0002659-0.0011405
           dz  0.0003144-0.0000070 0.0001056 0.0009424-0.0005321 0.0000653
  21 c     dx -0.0003919-0.0000274-0.0000440-0.0022156 0.0006000 0.0002694
           dy -0.0000648 0.0000213 0.0000001-0.0001531-0.0003050-0.0004513
           dz  0.0001158-0.0000586-0.0000101 0.0008976-0.0008268 0.0010934
  22 c     dx -0.0004206-0.0000228 0.0000486-0.0015178-0.0003248-0.0007575
           dy -0.0001054 0.0000088-0.0000101-0.0005744-0.0012311 0.0008309
           dz -0.0002673 0.0000137-0.0000736 0.0003026 0.0007355-0.0008196
  23 c     dx  0.0004545 0.0001604-0.0002702-0.0001623 0.0010745-0.0008619
           dy  0.0000086 0.0000151 0.0000051 0.0001823 0.0010558 0.0001232
           dz -0.0005006 0.0000508 0.0002663-0.0013274-0.0008497-0.0006401
  24 c     dx  0.0006979 0.0001718-0.0005338 0.0011418 0.0001329 0.0002775
           dy  0.0001376 0.0002340-0.0000848-0.0001740 0.0004564-0.0006686
           dz -0.0002274-0.0000355 0.0002515-0.0008092-0.0005198-0.0000419
  25 c     dx  0.0004022 0.0000480-0.0002259 0.0011778-0.0006448 0.0007501
           dy  0.0002729 0.0001472-0.0002408 0.0002229-0.0002375-0.0000627
           dz -0.0004346-0.0002681 0.0001203-0.0009787 0.0001488-0.0005341
  26 c     dx -0.0000049-0.0000668 0.0002033-0.0001848-0.0004531 0.0008405
           dy -0.0003036-0.0004378 0.0004320 0.0002273-0.0007683 0.0002853
           dz -0.0004447-0.0000007 0.0003194-0.0007150 0.0005479-0.0031403
  27 c     dx -0.0001610-0.0000117 0.0002440-0.0006808 0.0001824-0.0004087
           dy  0.0004699-0.0001182-0.0004328 0.0006647-0.0003517 0.0013099
           dz -0.0003011-0.0002670 0.0001501 0.0001898-0.0007073 0.0005961
  28 c     dx -0.0007906-0.0011379-0.0004515 0.0000533 0.0000159 0.0000299
           dy -0.0020390-0.0021151-0.0000842 0.0000309 0.0002042-0.0000390
           dz -0.0009573-0.0009351-0.0007645-0.0001988 0.0001632-0.0000961
  29 c     dx  0.0002122-0.0000031 0.0002144 0.0001628-0.0000713 0.0000961
           dy  0.0001572 0.0000424-0.0000924-0.0000343 0.0000279 0.0000061
           dz  0.0001511-0.0000004-0.0000544 0.0000201-0.0000538-0.0000035
  30 c     dx -0.0003527-0.0001529-0.0005794-0.0006432-0.0009839-0.0004535
           dy  0.0004179-0.0012144-0.0002831-0.0007451 0.0003025-0.0002864
           dz  0.0002547-0.0002049-0.0006096-0.0002215-0.0002273-0.0005884
  31 c     dx  0.0002360-0.0000228 0.0001102 0.0001083-0.0000967 0.0000458
           dy -0.0003272-0.0001807-0.0000995-0.0000471 0.0000180-0.0000477
           dz  0.0001727-0.0001400 0.0002516 0.0001260-0.0000104 0.0000640
  32 c     dx -0.0005058-0.0000485-0.0000572-0.0000972 0.0000763-0.0000857
           dy  0.0000958 0.0000653 0.0000010-0.0001711 0.0001811 0.0000671
           dz  0.0001542 0.0000667 0.0001410 0.0001170-0.0000005 0.0001109
  33 c     dx -0.0003192 0.0000866 0.0000031 0.0000683-0.0000562 0.0000174
           dy  0.0001475-0.0000107-0.0000727 0.0000213 0.0000180-0.0000071
           dz  0.0004181-0.0001314 0.0001882 0.0001378-0.0000800 0.0000891
  34 c     dx -0.0003348 0.0000216-0.0002018-0.0000466-0.0000507-0.0000806
           dy  0.0000525 0.0002226-0.0001780 0.0000256 0.0000636-0.0000287
           dz -0.0000479-0.0001352 0.0000797-0.0001176 0.0000467-0.0000419
  35 c     dx -0.0012914 0.0009717 0.0005035-0.0000763-0.0000112-0.0000567
           dy  0.0013148-0.0028025-0.0006760 0.0000195 0.0000636 0.0000594
           dz  0.0000233 0.0003496-0.0008093-0.0000488-0.0000502 0.0000019
  36 c     dx  0.0004337-0.0001284 0.0000979 0.0001674-0.0000834 0.0000696
           dy -0.0002157-0.0000956 0.0002317 0.0000531-0.0000127 0.0000467
           dz  0.0004759 0.0001934-0.0003271-0.0000281-0.0000144 0.0000087
  37 c     dx  0.0002542-0.0000629 0.0001783 0.0001324-0.0000784 0.0000677
           dy  0.0000608-0.0001296 0.0000539 0.0000468-0.0000467 0.0000080
           dz  0.0000832-0.0000617 0.0001416 0.0000957-0.0000600 0.0000480
  38 c     dx -0.0006396 0.0002262-0.0002165-0.0007945-0.0001569 0.0003868
           dy  0.0008461 0.0003185 0.0003524 0.0000943-0.0012144 0.0001951
           dz -0.0006682 0.0003628-0.0005393 0.0008098 0.0012962-0.0031833
  39 c     dx -0.0003879-0.0003739-0.0002412-0.0002119-0.0000613-0.0002254
           dy -0.0006902 0.0000452-0.0004654 0.0001203 0.0000665 0.0002105
           dz -0.0006790-0.0001078-0.0002456-0.0002253 0.0001549 0.0000694
  40 c     dx  0.0001788 0.0000274-0.0000497 0.0000503 0.0000112 0.0000363
           dy  0.0001255-0.0000022 0.0000666 0.0003708-0.0001000 0.0004271
           dz  0.0000756-0.0000012-0.0000186-0.0000474 0.0001998-0.0000519
  41 c     dx  0.0001883 0.0000058 0.0000527 0.0001710 0.0000912 0.0002643
           dy -0.0000049 0.0000181 0.0000011-0.0000538 0.0000365-0.0000206
           dz  0.0000533 0.0000112-0.0000095 0.0001179 0.0000278 0.0000090
  42 c     dx  0.0002059 0.0000336-0.0000218 0.0003139-0.0001868 0.0002705
           dy -0.0000844 0.0000029-0.0000963 0.0001639-0.0004118-0.0001942
           dz  0.0000289 0.0000290-0.0000478 0.0002657-0.0004317 0.0000570
  43 c     dx  0.0000895 0.0000086 0.0000037-0.0000614 0.0000967 0.0001791
           dy  0.0000737 0.0000137-0.0000067 0.0000959 0.0001058 0.0001717
           dz  0.0001935 0.0000206-0.0000202 0.0004550-0.0000527 0.0001501
  44 c     dx -0.0000994 0.0000026-0.0000535-0.0001631 0.0001201-0.0001445
           dy  0.0001354 0.0000313 0.0000117 0.0003085-0.0000163 0.0001550
           dz  0.0000468 0.0000415-0.0000099-0.0002427 0.0001500-0.0000901
  45 c     dx  0.0001697 0.0000737-0.0001107-0.0011417-0.0009478 0.0008906
           dy  0.0000907-0.0000354 0.0000037 0.0000954-0.0008251 0.0004046
[...]
 94   h           x   0.00239 -0.00082  0.00366 -0.02686 -0.00100  0.00200
                  y  -0.00360  0.00124 -0.00554  0.04066  0.00153 -0.00295
                  z   0.00555 -0.00191  0.00877 -0.06463 -0.00218  0.00482
 95   h           x   0.00241 -0.00092  0.00371 -0.02578 -0.00282  0.00098
                  y  -0.00237  0.00089 -0.00351  0.02426  0.00282 -0.00082
                  z  -0.00129  0.00050 -0.00188  0.01295  0.00153 -0.00044
 96   h           x  -0.00502  0.00265  0.00124 -0.00879  0.01421  0.00650
                  y   0.00027 -0.00019 -0.00003  0.00067  0.00052  0.00005
                  z  -0.00349  0.00186  0.00078 -0.00584  0.01165  0.00514
 97   h           x  -0.00032  0.00049  0.00001 -0.00010  0.00491  0.00188
                  y  -0.00023  0.00031  0.00004 -0.00023  0.00319  0.00122
                  z   0.00034 -0.00035 -0.00007  0.00052 -0.00269 -0.00111
 98   h           x   0.00082 -0.00040 -0.00011  0.00223 -0.00115 -0.00072
                  y  -0.00201  0.00093  0.00027 -0.00577  0.00075  0.00103
                  z  -0.00333  0.00157  0.00044 -0.00988  0.00055  0.00153
 99   h           x   0.00225  0.00100 -0.00897  0.03761  0.29509  0.09764
                  y   0.00480  0.00217 -0.01872  0.07834  0.61451  0.20344
                  z   0.00122  0.00056 -0.00473  0.01975  0.15516  0.05140
100   h           x   0.00044  0.00036 -0.00051  0.00148  0.01463  0.00531
                  y   0.00001  0.00005  0.00032 -0.00157 -0.01068 -0.00333
                  z  -0.00044 -0.00037  0.00052 -0.00155 -0.01520 -0.00551
101   h           x  -0.00266 -0.00129  0.01385 -0.05970 -0.46144 -0.15129
                  y   0.00235  0.00111 -0.01257  0.05428  0.41969  0.13753
                  z   0.00001  0.00004  0.00009 -0.00037 -0.00392 -0.00128
102   h           x   0.00196 -0.00066  0.01631 -0.12751  0.01185  0.01802
                  y   0.00406 -0.00137  0.03446 -0.26931  0.02508  0.03808
                  z  -0.00136  0.00046 -0.01119  0.08745 -0.00805 -0.01237
103   h           x   0.00391 -0.00127  0.02948 -0.23072  0.01936  0.03202
                  y   0.00656 -0.00213  0.04981 -0.38979  0.03282  0.05412
                  z   0.01217 -0.00395  0.09247 -0.72369  0.06092  0.10041
104   h           x  -0.00202  0.00072 -0.01444  0.11234 -0.00931 -0.01561
                  y   0.00020 -0.00008  0.00141 -0.01085  0.00081  0.00150
                  z   0.00109 -0.00039  0.00767 -0.05961  0.00465  0.00823
105   h           x   0.00007  0.00001 -0.00040  0.00287 -0.00743 -0.00276
                  y  -0.00001 -0.00000 -0.00000 -0.00005  0.00083  0.00030
                  z  -0.00004  0.00000  0.00047 -0.00339  0.00447  0.00184
106   h           x   0.00025 -0.00035 -0.00461  0.03269 -0.02482 -0.01240
                  y   0.00009 -0.00008 -0.00112  0.00768 -0.00392 -0.00226
                  z   0.00022 -0.00027 -0.00369  0.02615 -0.02064 -0.01017
107   h           x   0.00002  0.00000  0.00012 -0.00097  0.00106  0.00043
                  y  -0.00021  0.00019  0.00301 -0.02095  0.00615  0.00499
                  z   0.00023 -0.00019 -0.00281  0.01941 -0.00490 -0.00436

reduced mass(g/mol)     1.103    1.103    1.103    1.098    1.102    1.103


       mode             319      320      321

     frequency        3132.29  3138.24  3139.97

     symmetry            a        a        a   

        IR               YES      YES      YES
|dDIP/dQ|   (a.u.)     0.0018   0.0023   0.0024
intensity (km/mol)       5.48     9.77    10.37
intensity (  %   )       2.07     3.68     3.91
 
       RAMAN             YES      YES      YES
 
  1   mo          x  -0.00001  0.00000  0.00000
                  y  -0.00000  0.00000  0.00000
                  z   0.00001  0.00000 -0.00000
  2   y           x  -0.00000  0.00000  0.00000
                  y  -0.00000  0.00000  0.00000
                  z   0.00000  0.00000 -0.00000
  3   y           x  -0.00000  0.00000  0.00000
                  y  -0.00000  0.00000  0.00000
                  z   0.00000  0.00000 -0.00000
  4   s           x  -0.00001 -0.00000 -0.00000
                  y  -0.00004  0.00000 -0.00000
                  z  -0.00001 -0.00000  0.00000
  5   s           x   0.00001 -0.00000 -0.00000
                  y   0.00002  0.00000 -0.00000
                  z   0.00002 -0.00000  0.00000
  6   s           x   0.00002 -0.00000 -0.00000
                  y   0.00001 -0.00000  0.00000
                  z  -0.00000  0.00000 -0.00000
  7   s           x   0.00000 -0.00000 -0.00000
                  y   0.00000 -0.00000  0.00000
                  z  -0.00000 -0.00000 -0.00000
  8   c           x  -0.00023 -0.00000  0.00005
                  y   0.00047 -0.00000 -0.00000
                  z   0.00008 -0.00000  0.00003
  9   c           x  -0.00029 -0.00000 -0.00002
                  y  -0.00020 -0.00000 -0.00001
                  z   0.00058 -0.00000  0.00004
 10   c           x   0.00020 -0.00000 -0.00001
                  y  -0.00049 -0.00000 -0.00001
                  z   0.00001 -0.00000 -0.00003
 11   c           x   0.00001  0.00000 -0.00004
                  y   0.00001 -0.00000 -0.00007
                  z  -0.00002  0.00000  0.00006
 12   c           x  -0.00001  0.00000 -0.00007
                  y   0.00001 -0.00000  0.00003
                  z  -0.00002  0.00000  0.00015
 13   c           x  -0.00000 -0.00000 -0.00003
                  y   0.00000  0.00000 -0.00003
                  z   0.00001  0.00000  0.00002
 14   c           x   0.00000  0.00000  0.00003
                  y   0.00000  0.00000  0.00002
                  z   0.00000  0.00000  0.00001
 15   c           x   0.00000  0.00000  0.00029
                  y   0.00000 -0.00000 -0.00024
                  z   0.00000 -0.00000  0.00025
 16   c           x  -0.00000 -0.00000  0.00058
                  y   0.00000 -0.00000  0.00018
                  z   0.00000 -0.00000 -0.00070
 17   c           x  -0.00000 -0.00000 -0.00040
                  y  -0.00001 -0.00000  0.00024
                  z   0.00000 -0.00000 -0.00012
 18   c           x   0.00001 -0.00002 -0.00000
                  y   0.00000  0.00003  0.00000
                  z  -0.00002  0.00002  0.00000
 19   c           x   0.00000 -0.00006 -0.00000
                  y  -0.00000 -0.00004 -0.00000
                  z  -0.00000  0.00001  0.00000
 20   c           x   0.00000  0.00012 -0.00000
                  y  -0.00000 -0.00027 -0.00000
                  z  -0.00000 -0.00011  0.00000
 21   c           x  -0.00000  0.00009 -0.00000
                  y  -0.00000 -0.00000 -0.00000
                  z   0.00001  0.00007  0.00000
 22   c           x  -0.00000  0.00001 -0.00000
                  y   0.00002 -0.00005 -0.00000
                  z   0.00000 -0.00001 -0.00000
 23   c           x  -0.00000  0.00022 -0.00000
                  y   0.00000 -0.00019 -0.00000
                  z   0.00000  0.00034  0.00000
 24   c           x  -0.00000  0.00005 -0.00000
                  y  -0.00000  0.00086 -0.00000
                  z  -0.00000  0.00033  0.00000
 25   c           x  -0.00002 -0.00019 -0.00000
                  y  -0.00001  0.00004 -0.00000
                  z   0.00001 -0.00041  0.00000
 26   c           x   0.00002 -0.00002  0.00000
                  y  -0.00003 -0.00006 -0.00000
                  z  -0.00001  0.00000  0.00000
 27   c           x   0.00002  0.00003  0.00000
                  y   0.00002  0.00003 -0.00000
                  z  -0.00001  0.00001 -0.00000
 28   c           x  -0.00220 -0.00001 -0.00012
                  y  -0.00004  0.00001  0.00005
                  z  -0.00111  0.00000 -0.00002
 29   c           x   0.00023  0.00000  0.00260
                  y  -0.00027  0.00001 -0.00420
                  z   0.00098 -0.00000  0.00772
 30   c           x  -0.04497  0.00003  0.00000
                  y  -0.02212  0.00003 -0.00000
                  z   0.07769 -0.00004 -0.00001
 31   c           x  -0.00174  0.00001 -0.01590
                  y   0.00000  0.00000  0.00247
                  z   0.00062  0.00000  0.00550
 32   c           x   0.00197 -0.00000  0.00022
                  y   0.00001  0.00001 -0.00013
                  z   0.00123  0.00000  0.00015
 33   c           x  -0.00001  0.00001 -0.00078
                  y   0.00002  0.00000 -0.00006
                  z   0.00002  0.00001 -0.00029
 34   c           x   0.00005  0.00001  0.00008
                  y   0.00000 -0.00000 -0.00011
                  z   0.00105  0.00004 -0.00151
 35   c           x  -0.00034  0.00004  0.00089
                  y  -0.00018  0.00001  0.00055
                  z   0.00016 -0.00001 -0.00048
 36   c           x  -0.00004  0.00001  0.00098
                  y  -0.00004  0.00000  0.00017
                  z  -0.00003  0.00001  0.00099
 37   c           x  -0.00023  0.00001  0.04319
                  y  -0.00016  0.00001  0.02386
                  z   0.00037 -0.00001 -0.07533
 38   c           x   0.00296 -0.00140  0.00003
                  y  -0.00319  0.00159 -0.00003
                  z   0.00034  0.00017 -0.00000
 39   c           x   0.00045  0.00045  0.00002
                  y   0.00079  0.00094  0.00003
                  z   0.00035  0.00018  0.00002
 40   c           x   0.00000  0.00148  0.00001
                  y  -0.00001 -0.00025 -0.00000
                  z   0.00002  0.00046  0.00000
 41   c           x  -0.00002 -0.01509  0.00001
                  y   0.00016  0.08437 -0.00001
                  z   0.00002  0.01412 -0.00000
 42   c           x  -0.00007 -0.00087  0.00001
                  y  -0.00002 -0.00021  0.00000
                  z   0.00002 -0.00053  0.00000
 43   c           x  -0.00001  0.00192 -0.00000
                  y   0.00000 -0.00293  0.00001
                  z   0.00001  0.00237 -0.00001
 44   c           x   0.00002 -0.00002 -0.00000
                  y  -0.00000 -0.00003 -0.00000
                  z   0.00001 -0.00010 -0.00002
 45   c           x  -0.00035 -0.00000  0.00000
                  y   0.00218 -0.00011  0.00004
                  z   0.00031 -0.00000 -0.00000
 46   c           x   0.00000 -0.00720  0.00000
                  y   0.00001 -0.01903  0.00000
                  z   0.00001 -0.02078 -0.00000
 47   c           x   0.00006  0.00037 -0.00000
                  y  -0.00003 -0.00012  0.00000
                  z   0.00010  0.00050 -0.00001
 48   h           x   0.00000  0.00000 -0.00064
                  y  -0.00002  0.00001 -0.00281
                  z  -0.00002 -0.00000  0.00040
 49   h           x  -0.00020 -0.00007  0.00385
                  y  -0.00013 -0.00006  0.00465
                  z  -0.00021 -0.00007  0.00656
 50   h           x   0.00031 -0.00005  0.00736
                  y  -0.00007  0.00001 -0.00175
                  z  -0.00008  0.00001 -0.00075
 51   h           x   0.00060 -0.00013 -0.00997
                  y   0.00041 -0.00009 -0.00804
                  z   0.00038 -0.00008 -0.00485
 52   h           x  -0.00005  0.00001 -0.00000
                  y   0.00011 -0.00001  0.00081
                  z   0.00003 -0.00000  0.00106
 53   h           x  -0.00001 -0.00002 -0.00395
                  y  -0.00000  0.00004  0.00504
                  z  -0.00005 -0.00005 -0.00765
 54   h           x  -0.00421  0.00001 -0.04386
                  y   0.00551 -0.00001  0.05719
                  z  -0.00626  0.00002 -0.06490
 55   h           x   0.00119 -0.00000  0.00663
                  y  -0.00260  0.00000 -0.01463
                  z  -0.00582  0.00000 -0.03052
 56   h           x   0.00060 -0.00003  0.00686
                  y   0.00069 -0.00005  0.01426
                  z   0.00032 -0.00000  0.00211
 57   h           x   0.02111  0.00005  0.00099
                  y  -0.00254  0.00000 -0.00011
                  z   0.01249  0.00004  0.00066
 58   h           x   0.00314 -0.00004 -0.00005
                  y   0.00678 -0.00009  0.00007
                  z   0.00100 -0.00001 -0.00001
 59   h           x   0.00146  0.00006  0.00059
                  y  -0.00187 -0.00004 -0.00053
                  z  -0.00254 -0.00004 -0.00057
 60   h           x   0.60201 -0.00041  0.00002
                  y   0.29738 -0.00020 -0.00002
                  z  -0.26972  0.00019  0.00001
 61   h           x  -0.00748 -0.00000 -0.00000
                  y   0.00606 -0.00013  0.00006
                  z   0.01650 -0.00005  0.00001
 62   h           x  -0.05707  0.00004 -0.00002
                  y  -0.03777  0.00003  0.00002
                  z  -0.67668  0.00038  0.00003
 63   h           x  -0.00104 -0.00001  0.00008
                  y  -0.00569 -0.00004 -0.00016
                  z  -0.00494 -0.00004 -0.00000
 64   h           x  -0.02057  0.00002 -0.00259
                  y   0.00201  0.00000  0.00012
                  z  -0.00983  0.00001 -0.00106
 65   h           x   0.00090  0.00001  0.00000
                  y   0.00263 -0.00004  0.00168
                  z  -0.00131  0.00003 -0.00102
 66   h           x   0.00457 -0.00002  0.02717
                  y   0.00718 -0.00003  0.04479
                  z  -0.00332  0.00002 -0.02004
 67   h           x   0.01664 -0.00005  0.16755
                  y  -0.00571  0.00002 -0.05711
                  z  -0.00295  0.00001 -0.02965
 68   h           x  -0.00061  0.00000 -0.00344
                  y  -0.00174 -0.00003 -0.02291
                  z  -0.00166 -0.00003 -0.02031
 69   h           x   0.00063 -0.00001 -0.14015
                  y  -0.00073  0.00001  0.15736
                  z  -0.00317  0.00004  0.69792
 70   h           x  -0.00010 -0.00001 -0.00015
                  y   0.00006  0.00001  0.02296
                  z   0.00010 -0.00000 -0.01572
 71   h           x   0.00219 -0.00009 -0.38044
                  y   0.00266 -0.00011 -0.46620
                  z  -0.00128  0.00005  0.22166
 72   h           x   0.00399  0.00013 -0.00657
                  y  -0.00202 -0.00007  0.00333
                  z  -0.00657 -0.00022  0.01075
 73   h           x  -0.00457 -0.00020  0.00584
                  y   0.00204  0.00009 -0.00255
                  z  -0.00611 -0.00027  0.00780
 74   h           x   0.00003  0.00000 -0.00018
                  y  -0.00010 -0.00001  0.00025
                  z   0.00017  0.00001 -0.00025
 75   h           x   0.00268 -0.00043 -0.00695
                  y  -0.00032  0.00005  0.00068
                  z   0.00026 -0.00003 -0.00076
 76   h           x   0.00146 -0.00010 -0.00431
                  y   0.00222 -0.00016 -0.00666
                  z  -0.00224  0.00016  0.00672
 77   h           x  -0.00012  0.00002  0.00034
                  y   0.00021 -0.00003 -0.00041
                  z   0.00009 -0.00001 -0.00009
 78   h           x  -0.00461 -0.00400 -0.00023
                  y  -0.00252 -0.00222 -0.00015
                  z  -0.00556 -0.00471 -0.00030
 79   h           x  -0.00108 -0.00131 -0.00003
                  y  -0.00712 -0.00923 -0.00022
                  z   0.00136  0.00178  0.00004
 80   h           x   0.00012 -0.00003 -0.00003
                  y   0.00017  0.00004  0.00000
                  z   0.00000  0.00045  0.00007
 81   h           x  -0.00008 -0.00519 -0.00002
                  y   0.00010  0.00676  0.00004
                  z  -0.00009 -0.00638 -0.00004
 82   h           x  -0.00001 -0.01414 -0.00014
                  y  -0.00002 -0.00478 -0.00003
                  z   0.00000 -0.00006 -0.00001
 83   h           x   0.00005  0.00085 -0.00001
                  y  -0.00001 -0.00038  0.00000
                  z  -0.00013 -0.00027  0.00004
 84   h           x   0.00078  0.45031 -0.00008
                  y  -0.00098 -0.56637  0.00010
                  z  -0.00039 -0.22829  0.00004
 85   h           x   0.00000  0.00450 -0.00000
                  y   0.00004  0.02302 -0.00000
                  z  -0.00009 -0.04089  0.00001
 86   h           x  -0.00055 -0.27565  0.00001
                  y  -0.00094 -0.46914  0.00002
                  z   0.00019  0.09499 -0.00001
 87   h           x  -0.00003  0.00353 -0.00001
                  y   0.00008  0.00378 -0.00001
                  z   0.00017  0.00713 -0.00002
 88   h           x   0.00010 -0.00169 -0.00000
                  y   0.00027 -0.00206 -0.00000
                  z  -0.00042  0.00198  0.00001
 89   h           x   0.00082  0.01090 -0.00008
                  y   0.00005 -0.00093 -0.00000
                  z   0.00001 -0.00150  0.00000
 90   h           x  -0.02628  0.01104 -0.00025
                  y   0.01579 -0.00661  0.00015
                  z  -0.01907  0.00803 -0.00019
 91   h           x   0.00133 -0.00031 -0.00001
                  y   0.00031  0.00020 -0.00003
                  z  -0.00190 -0.00009  0.00004
 92   h           x  -0.01041  0.00605 -0.00011
                  y   0.02212 -0.01288  0.00024
                  z   0.01683 -0.00971  0.00018
 93   h           x   0.00002  0.00619 -0.00003
                  y   0.00002  0.00347 -0.00002
                  z  -0.00002 -0.00299  0.00002
 94   h           x  -0.00003 -0.01545  0.00004
                  y   0.00004  0.02375 -0.00005
                  z  -0.00006 -0.03556  0.00008
 95   h           x   0.00006 -0.01128  0.00002
                  y  -0.00006  0.01069 -0.00002
                  z  -0.00003  0.00680 -0.00001
 96   h           x  -0.00014  0.00052  0.00011
                  y  -0.00003 -0.00002 -0.00000
                  z  -0.00013  0.00037  0.00007
 97   h           x  -0.00005 -0.00001 -0.00005
                  y  -0.00004  0.00003 -0.00003
                  z   0.00002 -0.00006  0.00003
 98   h           x   0.00000 -0.00023 -0.00002
                  y   0.00002  0.00050  0.00006
                  z   0.00005  0.00083  0.00010
 99   h           x  -0.00750  0.00044 -0.00013
                  y  -0.01563  0.00088 -0.00028
                  z  -0.00393  0.00025 -0.00007
100   h           x  -0.00019  0.00012 -0.00008
                  y   0.00035  0.00003 -0.00002
                  z   0.00018 -0.00014  0.00008
101   h           x   0.01191 -0.00055  0.00019
                  y  -0.01083  0.00050 -0.00017
                  z   0.00012 -0.00005 -0.00001
102   h           x  -0.00001  0.04065 -0.00001
                  y  -0.00001  0.08522 -0.00002
                  z   0.00001 -0.02855  0.00001
103   h           x  -0.00003  0.08204  0.00000
                  y  -0.00005  0.13951  0.00000
                  z  -0.00010  0.25795  0.00001
104   h           x   0.00004 -0.04290 -0.00002
                  y  -0.00000  0.00468  0.00000
                  z  -0.00002  0.02429  0.00001
105   h           x   0.00010 -0.00029 -0.00002
                  y  -0.00003 -0.00002  0.00000
                  z  -0.00003  0.00048  0.00001
106   h           x  -0.00085 -0.00456  0.00006
                  y  -0.00024 -0.00100  0.00001
                  z  -0.00063 -0.00373  0.00004
107   h           x  -0.00001  0.00027  0.00000
                  y   0.00056  0.00297 -0.00005
                  z  -0.00057 -0.00260  0.00005

reduced mass(g/mol)     1.102    1.101    1.101
 

         **************************************************************
         *                                                            *
         *  zero point VIBRATIONAL energy  :      0.8911130  Hartree  *
         *    SCF-energy                   :  -3297.5490735           *
         *    SCF + E(vib0)                :  -3296.6579605           *
         *                                                            *
         **************************************************************




 time elapsed for vibrational analysis     2.99 sec


    ------------------------------------------------------------------------
         total  cpu-time :  35 days 13 hours  7 minutes and 11 seconds
         total wall-time :   1 days  9 hours 10 minutes and 13 seconds
    ------------------------------------------------------------------------

   ****  force : all done  ****


    2018-07-29 07:54:51.054 

