[Molden Format]
[Title]
                                                                                
[Atoms] AU
 mo    1   42 0.00000000000000E+00 0.00000000000000E+00 0.00000000000000E+00
 y     2   39 0.00000000000000E+00 0.00000000000000E+00 -.64871241389912E+01
 s     3   16 0.25413889249107E+01 0.22161375195383E+01 -.25666244324566E+01
 s     4   16 -.25413889249107E+01 -.22161375195383E+01 -.25666244324566E+01
 s     5   16 0.22161375195383E+01 -.25413889249107E+01 0.25666244324566E+01
 s     6   16 -.22161375195383E+01 0.25413889249107E+01 0.25666244324566E+01
 c     7    6 0.45242603850550E+01 -.16247357704512E+01 -.79182510162240E+01
 c     8    6 0.37180124351210E+01 -.33992736780551E+01 -.60527208805969E+01
 c     9    6 0.16163934623327E+01 -.47529125775304E+01 -.70480198232359E+01
 c    10    6 0.11319691529142E+01 -.38406668786036E+01 -.95429849064309E+01
 c    11    6 0.29557549292906E+01 -.19223425745464E+01 -.10095329968703E+02
 c    12    6 -.16163934623327E+01 0.47529125775304E+01 -.70480198232359E+01
 c    13    6 -.37180124351210E+01 0.33992736780551E+01 -.60527208805969E+01
 c    14    6 -.45242603850550E+01 0.16247357704512E+01 -.79182510162240E+01
 c    15    6 -.29557549292906E+01 0.19223425745464E+01 -.10095329968703E+02
 c    16    6 -.11319691529142E+01 0.38406668786036E+01 -.95429849064309E+01
 c    17    6 0.31606730433733E+00 -.69539240592243E+01 -.58122946378299E+01
 c    18    6 -.70370781468810E+00 -.50232306757678E+01 -.11363285748945E+02
 c    19    6 0.50033247891184E+01 -.39149809523732E+01 -.35803808830895E+01
 c    20    6 0.34918046420293E+01 -.79180445179936E+00 -.12643581382681E+02
 c    21    6 0.67670239880682E+01 0.10528433682469E+00 -.76865534528174E+01
 c    22    6 0.70370781468810E+00 0.50232306757678E+01 -.11363285748945E+02
 c    23    6 -.50033247891184E+01 0.39149809523732E+01 -.35803808830895E+01
 c    24    6 -.67670239880682E+01 -.10528433682469E+00 -.76865534528174E+01
 c    25    6 -.34918046420293E+01 0.79180445179936E+00 -.12643581382681E+02
 h    26    1 0.65360013767843E+01 -.53153736818419E+01 -.38243399886684E+01
 h    27    1 0.36801494838832E+01 -.46647902496261E+01 -.21661954275024E+01
 h    28    1 -.36801494838832E+01 0.46647902496261E+01 -.21661954275024E+01
 h    29    1 -.65360013767843E+01 0.53153736818419E+01 -.38243399886684E+01
 h    30    1 0.58296502082716E+01 -.21905089057887E+01 -.27670571192123E+01
 h    31    1 -.58296502082716E+01 0.21905089057887E+01 -.27670571192123E+01
 h    32    1 0.65550393038207E+01 0.18073720375974E+01 -.88671854195528E+01
 h    33    1 0.85317023052798E+01 -.84222175276047E+00 -.82847661494452E+01
 h    34    1 0.70220204409962E+01 0.73703314577192E+00 -.57216247051216E+01
 h    35    1 -.65550393038207E+01 -.18073720375974E+01 -.88671854195528E+01
 h    36    1 -.85317023052798E+01 0.84222175276047E+00 -.82847661494452E+01
 h    37    1 -.70220204409962E+01 -.73703314577192E+00 -.57216247051216E+01
 c    38    6 -.31606730433733E+00 0.69539240592243E+01 -.58122946378299E+01
 h    39    1 -.12450112583350E+01 0.87532556656280E+01 -.63340064527077E+01
 h    40    1 0.16789716755176E+01 0.70932984081745E+01 -.63848599544649E+01
 h    41    1 -.34802125884130E+00 0.67874307304068E+01 -.37417157952497E+01
 h    42    1 0.12450112583350E+01 -.87532556656280E+01 -.63340064527077E+01
 h    43    1 -.16789716755176E+01 -.70932984081745E+01 -.63848599544649E+01
 h    44    1 0.17776841673371E+01 -.58203603557220E+00 -.13798933176511E+02
 h    45    1 -.17776841673371E+01 0.58203603557220E+00 -.13798933176511E+02
 h    46    1 0.86119414056060E-01 0.69461485427026E+01 -.11899153267951E+02
 h    47    1 -.86119414056060E-01 -.69461485427026E+01 -.11899153267951E+02
 h    48    1 0.34802125884130E+00 -.67874307304068E+01 -.37417157952497E+01
 y    49   39 0.00000000000000E+00 0.00000000000000E+00 0.64871241389912E+01
 c    50    6 0.16247357704512E+01 0.45242603850550E+01 0.79182510162240E+01
 c    51    6 -.16247357704512E+01 -.45242603850550E+01 0.79182510162240E+01
 c    52    6 0.47529125775304E+01 0.16163934623327E+01 0.70480198232359E+01
 c    53    6 -.47529125775304E+01 -.16163934623327E+01 0.70480198232359E+01
 c    54    6 0.33992736780551E+01 0.37180124351210E+01 0.60527208805969E+01
 c    55    6 -.33992736780551E+01 -.37180124351210E+01 0.60527208805969E+01
 c    56    6 0.38406668786036E+01 0.11319691529142E+01 0.95429849064309E+01
 c    57    6 -.38406668786036E+01 -.11319691529142E+01 0.95429849064309E+01
 c    58    6 0.19223425745464E+01 0.29557549292906E+01 0.10095329968703E+02
 c    59    6 -.19223425745464E+01 -.29557549292906E+01 0.10095329968703E+02
 c    60    6 0.69539240592243E+01 0.31606730433733E+00 0.58122946378299E+01
 c    61    6 -.69539240592243E+01 -.31606730433733E+00 0.58122946378299E+01
 c    62    6 -.10528433682469E+00 0.67670239880682E+01 0.76865534528174E+01
 c    63    6 0.10528433682469E+00 -.67670239880682E+01 0.76865534528174E+01
 c    64    6 0.50232306757678E+01 -.70370781468810E+00 0.11363285748945E+02
 c    65    6 -.50232306757678E+01 0.70370781468810E+00 0.11363285748945E+02
 c    66    6 0.79180445179936E+00 0.34918046420293E+01 0.12643581382681E+02
 c    67    6 -.79180445179936E+00 -.34918046420293E+01 0.12643581382681E+02
 c    68    6 0.39149809523732E+01 0.50033247891184E+01 0.35803808830895E+01
 c    69    6 -.39149809523732E+01 -.50033247891184E+01 0.35803808830895E+01
 h    70    1 0.53153736818419E+01 0.65360013767843E+01 0.38243399886684E+01
 h    71    1 -.53153736818419E+01 -.65360013767843E+01 0.38243399886684E+01
 h    72    1 0.46647902496261E+01 0.36801494838832E+01 0.21661954275024E+01
 h    73    1 -.46647902496261E+01 -.36801494838832E+01 0.21661954275024E+01
 h    74    1 0.21905089057887E+01 0.58296502082716E+01 0.27670571192123E+01
 h    75    1 -.21905089057887E+01 -.58296502082716E+01 0.27670571192123E+01
 h    76    1 -.18073720375974E+01 0.65550393038207E+01 0.88671854195528E+01
 h    77    1 0.18073720375974E+01 -.65550393038207E+01 0.88671854195528E+01
 h    78    1 0.70932984081745E+01 -.16789716755176E+01 0.63848599544649E+01
 h    79    1 -.70932984081745E+01 0.16789716755176E+01 0.63848599544649E+01
 h    80    1 0.84222175276047E+00 0.85317023052798E+01 0.82847661494452E+01
 h    81    1 -.84222175276047E+00 -.85317023052798E+01 0.82847661494452E+01
 h    82    1 0.87532556656280E+01 0.12450112583350E+01 0.63340064527077E+01
 h    83    1 -.87532556656280E+01 -.12450112583350E+01 0.63340064527077E+01
 h    84    1 -.73703314577192E+00 0.70220204409962E+01 0.57216247051216E+01
 h    85    1 0.73703314577192E+00 -.70220204409962E+01 0.57216247051216E+01
 h    86    1 0.67874307304068E+01 0.34802125884130E+00 0.37417157952497E+01
 h    87    1 -.67874307304068E+01 -.34802125884130E+00 0.37417157952497E+01
 h    88    1 0.52142958320636E+01 -.26160093609012E+01 0.10555794770009E+02
 h    89    1 -.26160093609012E+01 -.52142958320636E+01 -.10555794770009E+02
 h    90    1 0.26160093609012E+01 0.52142958320636E+01 -.10555794770009E+02
 h    91    1 0.58203603557220E+00 0.17776841673371E+01 0.13798933176511E+02
 h    92    1 -.58203603557220E+00 -.17776841673371E+01 0.13798933176511E+02
 h    93    1 0.39182729876525E+01 -.87058600767501E+00 0.13112381542216E+02
 h    94    1 -.87058600767501E+00 -.39182729876525E+01 -.13112381542216E+02
 h    95    1 -.39182729876525E+01 0.87058600767501E+00 0.13112381542216E+02
 h    96    1 0.87058600767501E+00 0.39182729876525E+01 -.13112381542216E+02
 h    97    1 -.52142958320636E+01 0.26160093609012E+01 0.10555794770009E+02
 h    98    1 0.10795428408222E+01 -.43819434285596E+01 0.12492179620423E+02
 h    99    1 -.43819434285596E+01 -.10795428408222E+01 -.12492179620423E+02
 h   100    1 -.10795428408222E+01 0.43819434285596E+01 0.12492179620423E+02
 h   101    1 0.43819434285596E+01 0.10795428408222E+01 -.12492179620423E+02
 h   102    1 -.69461485427026E+01 0.86119414056060E-01 0.11899153267951E+02
 h   103    1 0.69461485427026E+01 -.86119414056060E-01 0.11899153267951E+02
 h   104    1 -.20073312901821E+01 -.48082979303501E+01 0.13720851217409E+02
 h   105    1 -.48082979303501E+01 0.20073312901821E+01 -.13720851217409E+02
 h   106    1 0.20073312901821E+01 0.48082979303501E+01 0.13720851217409E+02
 h   107    1 0.48082979303501E+01 -.20073312901821E+01 -.13720851217409E+02
[FREQ]
 -.17380000000000E+02
 -.17380000000000E+02
 0.00000000000000E+00
 0.00000000000000E+00
 0.00000000000000E+00
 0.00000000000000E+00
 0.00000000000000E+00
 0.00000000000000E+00
 0.15000000000000E+02
 0.29680000000000E+02
 0.29680000000000E+02
 0.30460000000000E+02
 0.35230000000000E+02
 0.54750000000000E+02
 0.66300000000000E+02
 0.66300000000000E+02
 0.86860000000000E+02
 0.86860000000000E+02
 0.88750000000000E+02
 0.93860000000000E+02
 0.96160000000000E+02
 0.96160000000000E+02
 0.99730000000000E+02
 0.10106000000000E+03
 0.10228000000000E+03
 0.10228000000000E+03
 0.10428000000000E+03
 0.11449000000000E+03
 0.11497000000000E+03
 0.11497000000000E+03
 0.12296000000000E+03
 0.12443000000000E+03
 0.12456000000000E+03
 0.12464000000000E+03
 0.12465000000000E+03
 0.12561000000000E+03
 0.13238000000000E+03
 0.13238000000000E+03
 0.13287000000000E+03
 0.13419000000000E+03
 0.13426000000000E+03
 0.13700000000000E+03
 0.13700000000000E+03
 0.13754000000000E+03
 0.14800000000000E+03
 0.15203000000000E+03
 0.15203000000000E+03
 0.15474000000000E+03
 0.15540000000000E+03
 0.16009000000000E+03
 0.16009000000000E+03
 0.16348000000000E+03
 0.16963000000000E+03
 0.18514000000000E+03
 0.18514000000000E+03
 0.18732000000000E+03
 0.18793000000000E+03
 0.18881000000000E+03
 0.18881000000000E+03
 0.19431000000000E+03
 0.19487000000000E+03
 0.20451000000000E+03
 0.20801000000000E+03
 0.21145000000000E+03
 0.21145000000000E+03
 0.23437000000000E+03
 0.23437000000000E+03
 0.25109000000000E+03
 0.26037000000000E+03
 0.26082000000000E+03
 0.26278000000000E+03
 0.26278000000000E+03
 0.26661000000000E+03
 0.26960000000000E+03
 0.26960000000000E+03
 0.27489000000000E+03
 0.27504000000000E+03
 0.27598000000000E+03
 0.27598000000000E+03
 0.27771000000000E+03
 0.27773000000000E+03
 0.28003000000000E+03
 0.28003000000000E+03
 0.28198000000000E+03
 0.28515000000000E+03
 0.29406000000000E+03
 0.30098000000000E+03
 0.32892000000000E+03
 0.32892000000000E+03
 0.37202000000000E+03
 0.37202000000000E+03
 0.37920000000000E+03
 0.37920000000000E+03
 0.38096000000000E+03
 0.38146000000000E+03
 0.38541000000000E+03
 0.38585000000000E+03
 0.42181000000000E+03
 0.44635000000000E+03
 0.45351000000000E+03
 0.45351000000000E+03
 0.54733000000000E+03
 0.54733000000000E+03
 0.54765000000000E+03
 0.54772000000000E+03
 0.54863000000000E+03
 0.54865000000000E+03
 0.54907000000000E+03
 0.54907000000000E+03
 0.55027000000000E+03
 0.55027000000000E+03
 0.55078000000000E+03
 0.55098000000000E+03
 0.60167000000000E+03
 0.60167000000000E+03
 0.60323000000000E+03
 0.60342000000000E+03
 0.62477000000000E+03
 0.62477000000000E+03
 0.62526000000000E+03
 0.62528000000000E+03
 0.63666000000000E+03
 0.63666000000000E+03
 0.63912000000000E+03
 0.63915000000000E+03
 0.81485000000000E+03
 0.81485000000000E+03
 0.81611000000000E+03
 0.81614000000000E+03
 0.81736000000000E+03
 0.81736000000000E+03
 0.81832000000000E+03
 0.81832000000000E+03
 0.95249000000000E+03
 0.95249000000000E+03
 0.95255000000000E+03
 0.95257000000000E+03
 0.95979000000000E+03
 0.96020000000000E+03
 0.96020000000000E+03
 0.96046000000000E+03
 0.10273600000000E+04
 0.10273600000000E+04
 0.10294800000000E+04
 0.10296500000000E+04
 0.10313300000000E+04
 0.10313500000000E+04
 0.10314800000000E+04
 0.10314800000000E+04
 0.10357500000000E+04
 0.10357500000000E+04
 0.10364200000000E+04
 0.10368700000000E+04
 0.10438200000000E+04
 0.10438200000000E+04
 0.10441300000000E+04
 0.10441300000000E+04
 0.10462700000000E+04
 0.10462700000000E+04
 0.10468600000000E+04
 0.10469400000000E+04
 0.10754300000000E+04
 0.10754300000000E+04
 0.10756100000000E+04
 0.10758300000000E+04
 0.10796100000000E+04
 0.10796100000000E+04
 0.10805400000000E+04
 0.10805900000000E+04
 0.11138100000000E+04
 0.11138100000000E+04
 0.11143600000000E+04
 0.11146400000000E+04
 0.11848600000000E+04
 0.11848700000000E+04
 0.11851700000000E+04
 0.11851700000000E+04
 0.11883000000000E+04
 0.11884100000000E+04
 0.11890100000000E+04
 0.11890100000000E+04
 0.13861600000000E+04
 0.13861600000000E+04
 0.13924500000000E+04
 0.13924700000000E+04
 0.13953600000000E+04
 0.13953600000000E+04
 0.13954100000000E+04
 0.13960500000000E+04
 0.13973600000000E+04
 0.13973600000000E+04
 0.13984400000000E+04
 0.13984400000000E+04
 0.14005500000000E+04
 0.14005500000000E+04
 0.14018500000000E+04
 0.14025000000000E+04
 0.14039800000000E+04
 0.14039800000000E+04
 0.14074400000000E+04
 0.14077500000000E+04
 0.14330900000000E+04
 0.14331600000000E+04
 0.14339300000000E+04
 0.14339300000000E+04
 0.14402600000000E+04
 0.14402600000000E+04
 0.14451900000000E+04
 0.14453700000000E+04
 0.14565400000000E+04
 0.14565400000000E+04
 0.14571800000000E+04
 0.14573200000000E+04
 0.14577100000000E+04
 0.14577500000000E+04
 0.14601700000000E+04
 0.14601700000000E+04
 0.14615200000000E+04
 0.14618200000000E+04
 0.14633200000000E+04
 0.14633200000000E+04
 0.14650500000000E+04
 0.14650500000000E+04
 0.14650800000000E+04
 0.14650900000000E+04
 0.14653300000000E+04
 0.14653300000000E+04
 0.14669500000000E+04
 0.14670400000000E+04
 0.14712700000000E+04
 0.14712700000000E+04
 0.14721500000000E+04
 0.14725900000000E+04
 0.14736500000000E+04
 0.14736500000000E+04
 0.14752800000000E+04
 0.14752900000000E+04
 0.14807200000000E+04
 0.14812000000000E+04
 0.14836200000000E+04
 0.14836200000000E+04
 0.14872200000000E+04
 0.14872200000000E+04
 0.14873200000000E+04
 0.14878900000000E+04
 0.14950700000000E+04
 0.14952400000000E+04
 0.14972900000000E+04
 0.14972900000000E+04
 0.15017900000000E+04
 0.15017900000000E+04
 0.15080300000000E+04
 0.15080700000000E+04
 0.15297200000000E+04
 0.15297200000000E+04
 0.15306500000000E+04
 0.15307900000000E+04
 0.15397900000000E+04
 0.15398200000000E+04
 0.15398300000000E+04
 0.15398300000000E+04
 0.29953100000000E+04
 0.29953600000000E+04
 0.29953600000000E+04
 0.29953600000000E+04
 0.29962900000000E+04
 0.29963100000000E+04
 0.29963100000000E+04
 0.29963700000000E+04
 0.29977100000000E+04
 0.29977100000000E+04
 0.29977400000000E+04
 0.29979500000000E+04
 0.29988800000000E+04
 0.29988800000000E+04
 0.29994300000000E+04
 0.29995900000000E+04
 0.30013700000000E+04
 0.30013700000000E+04
 0.30017300000000E+04
 0.30025500000000E+04
 0.30607600000000E+04
 0.30607700000000E+04
 0.30610000000000E+04
 0.30610000000000E+04
 0.30719500000000E+04
 0.30719700000000E+04
 0.30720000000000E+04
 0.30720000000000E+04
 0.30824300000000E+04
 0.30824300000000E+04
 0.30824800000000E+04
 0.30825300000000E+04
 0.30830800000000E+04
 0.30830800000000E+04
 0.30831100000000E+04
 0.30831100000000E+04
 0.30935100000000E+04
 0.30935100000000E+04
 0.30936500000000E+04
 0.30937500000000E+04
 0.31148400000000E+04
 0.31148400000000E+04
 0.31148400000000E+04
 0.31148800000000E+04
 0.31273400000000E+04
 0.31273400000000E+04
 0.31287100000000E+04
 0.31287300000000E+04
 0.31289000000000E+04
 0.31289000000000E+04
 0.31289900000000E+04
 0.31289900000000E+04
 0.31303800000000E+04
 0.31303900000000E+04
 0.31310300000000E+04
 0.31310300000000E+04
 0.31363200000000E+04
 0.31363500000000E+04
 0.31363800000000E+04
 0.31363800000000E+04
[INT]
 0.00000000000000E+00
 0.00000000000000E+00
 0.00000000000000E+00
 0.00000000000000E+00
 0.00000000000000E+00
 0.00000000000000E+00
 0.00000000000000E+00
 0.00000000000000E+00
 0.61400000000000E-02
 0.43504000000000E+00
 0.43505000000000E+00
 0.00000000000000E+00
 0.23640000000000E-01
 0.00000000000000E+00
 0.89300000000000E-02
 0.89300000000000E-02
 0.45152000000000E+00
 0.45151000000000E+00
 0.00000000000000E+00
 0.44924600000000E+01
 0.13281000000000E+00
 0.13279000000000E+00
 0.00000000000000E+00
 0.89000000000000E-03
 0.19364000000000E+00
 0.19366000000000E+00
 0.00000000000000E+00
 0.30231200000000E+01
 0.79210000000000E-01
 0.79220000000000E-01
 0.17023000000000E+00
 0.30000000000000E-04
 0.35190900000000E+01
 0.51946000000000E+00
 0.51940000000000E+00
 0.00000000000000E+00
 0.59310000000000E-01
 0.59340000000000E-01
 0.00000000000000E+00
 0.52917000000000E+00
 0.00000000000000E+00
 0.16912000000000E+00
 0.16915000000000E+00
 0.62134000000000E+01
 0.44740000000000E+01
 0.57200000000000E-01
 0.57200000000000E-01
 0.00000000000000E+00
 0.66814400000000E+01
 0.38850000000000E-01
 0.38850000000000E-01
 0.00000000000000E+00
 0.17459500000000E+01
 0.41490000000000E-01
 0.41530000000000E-01
 0.17053000000000E+00
 0.00000000000000E+00
 0.31513000000000E+00
 0.31508000000000E+00
 0.00000000000000E+00
 0.49723000000000E+00
 0.00000000000000E+00
 0.61133400000000E+01
 0.14730000000000E-01
 0.14730000000000E-01
 0.54984000000000E+00
 0.54984000000000E+00
 0.22925753000000E+03
 0.00000000000000E+00
 0.16838230000000E+02
 0.53501000000000E+00
 0.53501000000000E+00
 0.00000000000000E+00
 0.50961000000000E+00
 0.50960000000000E+00
 0.23395000000000E+01
 0.00000000000000E+00
 0.32410000000000E-01
 0.32410000000000E-01
 0.75045700000000E+01
 0.18000000000000E-03
 0.23797000000000E+00
 0.23797000000000E+00
 0.73784200000000E+01
 0.00000000000000E+00
 0.13494402000000E+03
 0.00000000000000E+00
 0.98743200000000E+02
 0.98743130000000E+02
 0.47815000000000E+00
 0.47816000000000E+00
 0.78108000000000E+00
 0.78108000000000E+00
 0.53707000000000E+00
 0.00000000000000E+00
 0.81087900000000E+01
 0.00000000000000E+00
 0.00000000000000E+00
 0.33161294000000E+03
 0.37678880000000E+02
 0.37678960000000E+02
 0.52050000000000E-01
 0.52050000000000E-01
 0.00000000000000E+00
 0.54310000000000E-01
 0.10448000000000E+00
 0.00000000000000E+00
 0.68830000000000E-01
 0.68820000000000E-01
 0.89750000000000E-01
 0.89760000000000E-01
 0.00000000000000E+00
 0.13257000000000E+00
 0.36978300000000E+01
 0.36978000000000E+01
 0.32597000000000E+01
 0.00000000000000E+00
 0.51388000000000E+00
 0.51388000000000E+00
 0.00000000000000E+00
 0.23801000000000E+00
 0.66430000000000E-01
 0.66430000000000E-01
 0.13200800000000E+01
 0.00000000000000E+00
 0.95174000000000E+00
 0.95174000000000E+00
 0.75082000000000E+00
 0.00000000000000E+00
 0.11745500000000E+01
 0.11745400000000E+01
 0.90500000000000E-02
 0.00000000000000E+00
 0.10770000000000E+01
 0.10770100000000E+01
 0.25450600000000E+01
 0.20000000000000E-04
 0.00000000000000E+00
 0.67478000000000E+00
 0.67478000000000E+00
 0.10031200000000E+01
 0.67550900000000E+01
 0.67549500000000E+01
 0.22415830000000E+02
 0.10000000000000E-04
 0.19988200000000E+01
 0.00000000000000E+00
 0.19484840000000E+02
 0.19484990000000E+02
 0.64398500000000E+01
 0.64399100000000E+01
 0.26532860000000E+02
 0.00000000000000E+00
 0.10101900000000E+01
 0.10104500000000E+01
 0.67729300000000E+01
 0.55908000000000E+00
 0.28493000000000E+00
 0.28500000000000E+00
 0.00000000000000E+00
 0.12000000000000E-03
 0.29044000000000E+01
 0.29043700000000E+01
 0.15488100000000E+01
 0.00000000000000E+00
 0.97167000000000E+00
 0.97169000000000E+00
 0.00000000000000E+00
 0.56146000000000E+01
 0.24017000000000E+00
 0.24017000000000E+00
 0.14512300000000E+01
 0.00000000000000E+00
 0.00000000000000E+00
 0.42860000000000E-01
 0.88980000000000E-01
 0.88980000000000E-01
 0.17334900000000E+01
 0.00000000000000E+00
 0.14745000000000E+00
 0.14745000000000E+00
 0.25839000000000E+00
 0.25839000000000E+00
 0.38111800000000E+01
 0.00000000000000E+00
 0.26190000000000E+00
 0.26186000000000E+00
 0.00000000000000E+00
 0.97460000000000E-01
 0.15639400000000E+01
 0.15640200000000E+01
 0.00000000000000E+00
 0.27129200000000E+01
 0.10633500000000E+01
 0.10634100000000E+01
 0.13839340000000E+02
 0.00000000000000E+00
 0.73426000000000E+00
 0.73428000000000E+00
 0.30560000000000E+00
 0.00000000000000E+00
 0.00000000000000E+00
 0.33300000000000E-02
 0.36231000000000E+00
 0.36232000000000E+00
 0.11021100000000E+01
 0.11021100000000E+01
 0.21567100000000E+01
 0.00000000000000E+00
 0.18187940000000E+02
 0.18187670000000E+02
 0.10323300000000E+01
 0.00000000000000E+00
 0.67613400000000E+01
 0.40000000000000E-04
 0.28781100000000E+01
 0.28783000000000E+01
 0.37965800000000E+01
 0.00000000000000E+00
 0.19635640000000E+02
 0.19635780000000E+02
 0.16606000000000E+00
 0.16628000000000E+00
 0.13000000000000E-03
 0.23131530000000E+02
 0.15791100000000E+01
 0.15790500000000E+01
 0.00000000000000E+00
 0.26071600000000E+01
 0.13923200000000E+01
 0.13923100000000E+01
 0.81249800000000E+01
 0.00000000000000E+00
 0.36725500000000E+01
 0.36725300000000E+01
 0.90000000000000E-04
 0.47215000000000E+00
 0.22020750000000E+02
 0.00000000000000E+00
 0.29493700000000E+01
 0.29496300000000E+01
 0.38160040000000E+02
 0.38160250000000E+02
 0.26976570000000E+02
 0.00000000000000E+00
 0.00000000000000E+00
 0.35656600000000E+01
 0.21981300000000E+01
 0.21981800000000E+01
 0.47596000000000E+00
 0.47598000000000E+00
 0.00000000000000E+00
 0.17222100000000E+01
 0.98507000000000E+00
 0.98505000000000E+00
 0.98680000000000E-01
 0.00000000000000E+00
 0.53817000000000E+00
 0.00000000000000E+00
 0.70915000000000E+00
 0.70915000000000E+00
 0.00000000000000E+00
 0.11425088000000E+03
 0.11425647000000E+03
 0.18915000000000E+00
 0.90861000000000E+01
 0.65562190000000E+02
 0.65563720000000E+02
 0.10000000000000E-04
 0.88649530000000E+02
 0.88647890000000E+02
 0.73579540000000E+02
 0.00000000000000E+00
 0.16718759000000E+03
 0.16719603000000E+03
 0.12666406000000E+03
 0.00000000000000E+00
 0.11965809000000E+03
 0.11965780000000E+03
 0.40845068000000E+03
 0.00000000000000E+00
 0.96081300000000E+01
 0.10000000000000E-03
 0.48537600000000E+02
 0.48537660000000E+02
 0.34417000000000E+00
 0.00000000000000E+00
 0.35648750000000E+02
 0.35648900000000E+02
 0.59507400000000E+01
 0.59496100000000E+01
 0.26328820000000E+02
 0.20000000000000E-04
 0.38205000000000E+00
 0.30900000000000E-02
 0.58325760000000E+02
 0.58326400000000E+02
 0.16532880000000E+02
 0.16532800000000E+02
 0.31199410000000E+02
 0.10000000000000E-04
 0.39265200000000E+02
 0.29801100000000E+01
 0.29800900000000E+01
 0.10000000000000E-04
 0.22113220000000E+02
 0.22112050000000E+02
 0.57636880000000E+02
 0.10000000000000E-04
 0.15326340000000E+02
 0.15327520000000E+02
 0.22792400000000E+02
 0.10690000000000E-01
 0.29832210000000E+02
 0.12000000000000E-03
 0.35309600000000E+01
 0.35311600000000E+01
 0.00000000000000E+00
 0.35700000000000E+00
 0.11231510000000E+02
 0.11231520000000E+02
[FR-COORD]
 mo 0.00000000000000E+00 0.00000000000000E+00 0.00000000000000E+00
 y  0.00000000000000E+00 0.00000000000000E+00 -.64871241389912E+01
 s  0.25413889249107E+01 0.22161375195383E+01 -.25666244324566E+01
 s  -.25413889249107E+01 -.22161375195383E+01 -.25666244324566E+01
 s  0.22161375195383E+01 -.25413889249107E+01 0.25666244324566E+01
 s  -.22161375195383E+01 0.25413889249107E+01 0.25666244324566E+01
 c  0.45242603850550E+01 -.16247357704512E+01 -.79182510162240E+01
 c  0.37180124351210E+01 -.33992736780551E+01 -.60527208805969E+01
 c  0.16163934623327E+01 -.47529125775304E+01 -.70480198232359E+01
 c  0.11319691529142E+01 -.38406668786036E+01 -.95429849064309E+01
 c  0.29557549292906E+01 -.19223425745464E+01 -.10095329968703E+02
 c  -.16163934623327E+01 0.47529125775304E+01 -.70480198232359E+01
 c  -.37180124351210E+01 0.33992736780551E+01 -.60527208805969E+01
 c  -.45242603850550E+01 0.16247357704512E+01 -.79182510162240E+01
 c  -.29557549292906E+01 0.19223425745464E+01 -.10095329968703E+02
 c  -.11319691529142E+01 0.38406668786036E+01 -.95429849064309E+01
 c  0.31606730433733E+00 -.69539240592243E+01 -.58122946378299E+01
 c  -.70370781468810E+00 -.50232306757678E+01 -.11363285748945E+02
 c  0.50033247891184E+01 -.39149809523732E+01 -.35803808830895E+01
 c  0.34918046420293E+01 -.79180445179936E+00 -.12643581382681E+02
 c  0.67670239880682E+01 0.10528433682469E+00 -.76865534528174E+01
 c  0.70370781468810E+00 0.50232306757678E+01 -.11363285748945E+02
 c  -.50033247891184E+01 0.39149809523732E+01 -.35803808830895E+01
 c  -.67670239880682E+01 -.10528433682469E+00 -.76865534528174E+01
 c  -.34918046420293E+01 0.79180445179936E+00 -.12643581382681E+02
 h  0.65360013767843E+01 -.53153736818419E+01 -.38243399886684E+01
 h  0.36801494838832E+01 -.46647902496261E+01 -.21661954275024E+01
 h  -.36801494838832E+01 0.46647902496261E+01 -.21661954275024E+01
 h  -.65360013767843E+01 0.53153736818419E+01 -.38243399886684E+01
 h  0.58296502082716E+01 -.21905089057887E+01 -.27670571192123E+01
 h  -.58296502082716E+01 0.21905089057887E+01 -.27670571192123E+01
 h  0.65550393038207E+01 0.18073720375974E+01 -.88671854195528E+01
 h  0.85317023052798E+01 -.84222175276047E+00 -.82847661494452E+01
 h  0.70220204409962E+01 0.73703314577192E+00 -.57216247051216E+01
 h  -.65550393038207E+01 -.18073720375974E+01 -.88671854195528E+01
 h  -.85317023052798E+01 0.84222175276047E+00 -.82847661494452E+01
 h  -.70220204409962E+01 -.73703314577192E+00 -.57216247051216E+01
 c  -.31606730433733E+00 0.69539240592243E+01 -.58122946378299E+01
 h  -.12450112583350E+01 0.87532556656280E+01 -.63340064527077E+01
 h  0.16789716755176E+01 0.70932984081745E+01 -.63848599544649E+01
 h  -.34802125884130E+00 0.67874307304068E+01 -.37417157952497E+01
 h  0.12450112583350E+01 -.87532556656280E+01 -.63340064527077E+01
 h  -.16789716755176E+01 -.70932984081745E+01 -.63848599544649E+01
 h  0.17776841673371E+01 -.58203603557220E+00 -.13798933176511E+02
 h  -.17776841673371E+01 0.58203603557220E+00 -.13798933176511E+02
 h  0.86119414056060E-01 0.69461485427026E+01 -.11899153267951E+02
 h  -.86119414056060E-01 -.69461485427026E+01 -.11899153267951E+02
 h  0.34802125884130E+00 -.67874307304068E+01 -.37417157952497E+01
 y  0.00000000000000E+00 0.00000000000000E+00 0.64871241389912E+01
 c  0.16247357704512E+01 0.45242603850550E+01 0.79182510162240E+01
 c  -.16247357704512E+01 -.45242603850550E+01 0.79182510162240E+01
 c  0.47529125775304E+01 0.16163934623327E+01 0.70480198232359E+01
 c  -.47529125775304E+01 -.16163934623327E+01 0.70480198232359E+01
 c  0.33992736780551E+01 0.37180124351210E+01 0.60527208805969E+01
 c  -.33992736780551E+01 -.37180124351210E+01 0.60527208805969E+01
 c  0.38406668786036E+01 0.11319691529142E+01 0.95429849064309E+01
 c  -.38406668786036E+01 -.11319691529142E+01 0.95429849064309E+01
 c  0.19223425745464E+01 0.29557549292906E+01 0.10095329968703E+02
 c  -.19223425745464E+01 -.29557549292906E+01 0.10095329968703E+02
 c  0.69539240592243E+01 0.31606730433733E+00 0.58122946378299E+01
 c  -.69539240592243E+01 -.31606730433733E+00 0.58122946378299E+01
 c  -.10528433682469E+00 0.67670239880682E+01 0.76865534528174E+01
 c  0.10528433682469E+00 -.67670239880682E+01 0.76865534528174E+01
 c  0.50232306757678E+01 -.70370781468810E+00 0.11363285748945E+02
 c  -.50232306757678E+01 0.70370781468810E+00 0.11363285748945E+02
 c  0.79180445179936E+00 0.34918046420293E+01 0.12643581382681E+02
 c  -.79180445179936E+00 -.34918046420293E+01 0.12643581382681E+02
 c  0.39149809523732E+01 0.50033247891184E+01 0.35803808830895E+01
 c  -.39149809523732E+01 -.50033247891184E+01 0.35803808830895E+01
 h  0.53153736818419E+01 0.65360013767843E+01 0.38243399886684E+01
 h  -.53153736818419E+01 -.65360013767843E+01 0.38243399886684E+01
 h  0.46647902496261E+01 0.36801494838832E+01 0.21661954275024E+01
 h  -.46647902496261E+01 -.36801494838832E+01 0.21661954275024E+01
 h  0.21905089057887E+01 0.58296502082716E+01 0.27670571192123E+01
 h  -.21905089057887E+01 -.58296502082716E+01 0.27670571192123E+01
 h  -.18073720375974E+01 0.65550393038207E+01 0.88671854195528E+01
 h  0.18073720375974E+01 -.65550393038207E+01 0.88671854195528E+01
 h  0.70932984081745E+01 -.16789716755176E+01 0.63848599544649E+01
 h  -.70932984081745E+01 0.16789716755176E+01 0.63848599544649E+01
 h  0.84222175276047E+00 0.85317023052798E+01 0.82847661494452E+01
 h  -.84222175276047E+00 -.85317023052798E+01 0.82847661494452E+01
 h  0.87532556656280E+01 0.12450112583350E+01 0.63340064527077E+01
 h  -.87532556656280E+01 -.12450112583350E+01 0.63340064527077E+01
 h  -.73703314577192E+00 0.70220204409962E+01 0.57216247051216E+01
 h  0.73703314577192E+00 -.70220204409962E+01 0.57216247051216E+01
 h  0.67874307304068E+01 0.34802125884130E+00 0.37417157952497E+01
 h  -.67874307304068E+01 -.34802125884130E+00 0.37417157952497E+01
 h  0.52142958320636E+01 -.26160093609012E+01 0.10555794770009E+02
 h  -.26160093609012E+01 -.52142958320636E+01 -.10555794770009E+02
 h  0.26160093609012E+01 0.52142958320636E+01 -.10555794770009E+02
 h  0.58203603557220E+00 0.17776841673371E+01 0.13798933176511E+02
 h  -.58203603557220E+00 -.17776841673371E+01 0.13798933176511E+02
 h  0.39182729876525E+01 -.87058600767501E+00 0.13112381542216E+02
 h  -.87058600767501E+00 -.39182729876525E+01 -.13112381542216E+02
 h  -.39182729876525E+01 0.87058600767501E+00 0.13112381542216E+02
 h  0.87058600767501E+00 0.39182729876525E+01 -.13112381542216E+02
 h  -.52142958320636E+01 0.26160093609012E+01 0.10555794770009E+02
 h  0.10795428408222E+01 -.43819434285596E+01 0.12492179620423E+02
 h  -.43819434285596E+01 -.10795428408222E+01 -.12492179620423E+02
 h  -.10795428408222E+01 0.43819434285596E+01 0.12492179620423E+02
 h  0.43819434285596E+01 0.10795428408222E+01 -.12492179620423E+02
 h  -.69461485427026E+01 0.86119414056060E-01 0.11899153267951E+02
 h  0.69461485427026E+01 -.86119414056060E-01 0.11899153267951E+02
 h  -.20073312901821E+01 -.48082979303501E+01 0.13720851217409E+02
 h  -.48082979303501E+01 0.20073312901821E+01 -.13720851217409E+02
 h  0.20073312901821E+01 0.48082979303501E+01 0.13720851217409E+02
 h  0.48082979303501E+01 -.20073312901821E+01 -.13720851217409E+02
[FR-NORM-COORD]
 vibration    1
 -.16170644100000E-01 0.20200970800000E-01 0.00000000000000E+00
 0.61436566000000E-02 0.10859740900000E-01 0.00000000000000E+00
 -.23101183000000E-01 0.35694478700000E-01 0.53102806000000E-02
 -.23101183000000E-01 0.35694478700000E-01 -.53102806000000E-02