[Molden Format]
[Title]
                                                                                
[Atoms] AU
 mo    1   42 0.00000000000000E+00 0.00000000000000E+00 0.00000000000000E+00
 y     2   39 0.00000000000000E+00 0.00000000000000E+00 -.66607977103023E+01
 s     3   16 0.23559756275147E+01 0.23559756275147E+01 -.26427806803412E+01
 s     4   16 -.23559756275147E+01 -.23559756275147E+01 -.26427806803412E+01
 s     5   16 0.23559756275147E+01 -.23559756275147E+01 0.26427806803412E+01
 s     6   16 -.23559756275147E+01 0.23559756275147E+01 0.26427806803412E+01
 c     7    6 0.47136566016794E+01 -.16269455551823E+01 -.76761045566135E+01
 c     8    6 0.35850964329073E+01 -.35850964329073E+01 -.62027790993212E+01
 c     9    6 0.16269455551823E+01 -.47136566016794E+01 -.76761045566135E+01
 c    10    6 0.15673787284405E+01 -.34809923599845E+01 -.10080345169322E+02
 c    11    6 0.34809923599845E+01 -.15673787284405E+01 -.10080345169322E+02
 c    12    6 -.16269455551823E+01 0.47136566016794E+01 -.76761045566135E+01
 c    13    6 -.35850964329073E+01 0.35850964329073E+01 -.62027790993212E+01
 c    14    6 -.47136566016794E+01 0.16269455551823E+01 -.76761045566135E+01
 c    15    6 -.34809923599845E+01 0.15673787284405E+01 -.10080345169322E+02
 c    16    6 -.15673787284405E+01 0.34809923599845E+01 -.10080345169322E+02
 c    17    6 0.10893671300944E+00 -.70067007288379E+01 -.69454433166135E+01
 c    18    6 0.14488034078092E+00 -.44304674782311E+01 -.12352950788280E+02
 c    19    6 0.44788008845833E+01 -.44788008845833E+01 -.36618630166082E+01
 c    20    6 0.44304674782311E+01 -.14488034078092E+00 -.12352950788280E+02
 c    21    6 0.70067007288379E+01 -.10893671300944E+00 -.69454433166135E+01
 c    22    6 -.14488034078092E+00 0.44304674782311E+01 -.12352950788280E+02
 c    23    6 -.44788008845833E+01 0.44788008845833E+01 -.36618630166082E+01
 c    24    6 -.70067007288379E+01 0.10893671300944E+00 -.69454433166135E+01
 c    25    6 -.44304674782311E+01 0.14488034078092E+00 -.12352950788280E+02
 h    26    1 0.59502171279618E+01 -.59502171279618E+01 -.38726548419831E+01
 h    27    1 0.29309116239199E+01 -.52907916531346E+01 -.25383698289900E+01
 h    28    1 -.29309116239199E+01 0.52907916531346E+01 -.25383698289900E+01
 h    29    1 -.59502171279618E+01 0.59502171279618E+01 -.38726548419831E+01
 h    30    1 0.52907916531346E+01 -.29309116239199E+01 -.25383698289900E+01
 h    31    1 -.52907916531346E+01 0.29309116239199E+01 -.25383698289900E+01
 h    32    1 0.70624979172092E+01 0.17302691156372E+01 -.79192147432229E+01
 h    33    1 0.87676599924996E+01 -.11212793622785E+01 -.74442579109746E+01
 h    34    1 0.70488133645092E+01 0.27117361466177E+00 -.49020228816813E+01
 h    35    1 -.70624979172092E+01 -.17302691156372E+01 -.79192147432229E+01
 h    36    1 -.87676599924996E+01 0.11212793622785E+01 -.74442579109746E+01
 h    37    1 -.70488133645092E+01 -.27117361466177E+00 -.49020228816813E+01
 c    38    6 -.10893671300944E+00 0.70067007288379E+01 -.69454433166135E+01
 h    39    1 -.11212793622785E+01 0.87676599924996E+01 -.74442579109746E+01
 h    40    1 0.17302691156372E+01 0.70624979172092E+01 -.79192147432229E+01
 h    41    1 0.27117361466177E+00 0.70488133645092E+01 -.49020228816813E+01
 h    42    1 0.11212793622785E+01 -.87676599924996E+01 -.74442579109746E+01
 h    43    1 -.17302691156372E+01 -.70624979172092E+01 -.79192147432229E+01
 h    44    1 0.29896111203068E+01 0.51734560094700E-02 -.13841958365135E+02
 h    45    1 -.29896111203068E+01 -.51734560094700E-02 -.13841958365135E+02
 h    46    1 -.11192709193529E+01 0.60795871162693E+01 -.13193367308077E+02
 h    47    1 0.11192709193529E+01 -.60795871162693E+01 -.13193367308077E+02
 h    48    1 -.27117361466177E+00 -.70488133645092E+01 -.49020228816813E+01
 y    49   39 0.00000000000000E+00 0.00000000000000E+00 0.66607977103023E+01
 c    50    6 0.16269455551823E+01 0.47136566016794E+01 0.76761045566135E+01
 c    51    6 -.16269455551823E+01 -.47136566016794E+01 0.76761045566135E+01
 c    52    6 0.47136566016794E+01 0.16269455551823E+01 0.76761045566135E+01
 c    53    6 -.47136566016794E+01 -.16269455551823E+01 0.76761045566135E+01
 c    54    6 0.35850964329073E+01 0.35850964329073E+01 0.62027790993212E+01
 c    55    6 -.35850964329073E+01 -.35850964329073E+01 0.62027790993212E+01
 c    56    6 0.34809923599845E+01 0.15673787284405E+01 0.10080345169322E+02
 c    57    6 -.34809923599845E+01 -.15673787284405E+01 0.10080345169322E+02
 c    58    6 0.15673787284405E+01 0.34809923599845E+01 0.10080345169322E+02
 c    59    6 -.15673787284405E+01 -.34809923599845E+01 0.10080345169322E+02
 c    60    6 0.70067007288379E+01 0.10893671300944E+00 0.69454433166135E+01
 c    61    6 -.70067007288379E+01 -.10893671300944E+00 0.69454433166135E+01
 c    62    6 0.10893671300944E+00 0.70067007288379E+01 0.69454433166135E+01
 c    63    6 -.10893671300944E+00 -.70067007288379E+01 0.69454433166135E+01
 c    64    6 0.44304674782311E+01 0.14488034078092E+00 0.12352950788280E+02
 c    65    6 -.44304674782311E+01 -.14488034078092E+00 0.12352950788280E+02
 c    66    6 0.14488034078092E+00 0.44304674782311E+01 0.12352950788280E+02
 c    67    6 -.14488034078092E+00 -.44304674782311E+01 0.12352950788280E+02
 c    68    6 0.44788008845833E+01 0.44788008845833E+01 0.36618630166082E+01
 c    69    6 -.44788008845833E+01 -.44788008845833E+01 0.36618630166082E+01
 h    70    1 0.59502171279618E+01 0.59502171279618E+01 0.38726548419831E+01
 h    71    1 -.59502171279618E+01 -.59502171279618E+01 0.38726548419831E+01
 h    72    1 0.52907916531346E+01 0.29309116239199E+01 0.25383698289900E+01
 h    73    1 -.52907916531346E+01 -.29309116239199E+01 0.25383698289900E+01
 h    74    1 0.29309116239199E+01 0.52907916531346E+01 0.25383698289900E+01
 h    75    1 -.29309116239199E+01 -.52907916531346E+01 0.25383698289900E+01
 h    76    1 -.17302691156372E+01 0.70624979172092E+01 0.79192147432229E+01
 h    77    1 0.17302691156372E+01 -.70624979172092E+01 0.79192147432229E+01
 h    78    1 0.70624979172092E+01 -.17302691156372E+01 0.79192147432229E+01
 h    79    1 -.70624979172092E+01 0.17302691156372E+01 0.79192147432229E+01
 h    80    1 0.11212793622785E+01 0.87676599924996E+01 0.74442579109746E+01
 h    81    1 -.11212793622785E+01 -.87676599924996E+01 0.74442579109746E+01
 h    82    1 0.87676599924996E+01 0.11212793622785E+01 0.74442579109746E+01
 h    83    1 -.87676599924996E+01 -.11212793622785E+01 0.74442579109746E+01
 h    84    1 -.27117361466177E+00 0.70488133645092E+01 0.49020228816813E+01
 h    85    1 0.27117361466177E+00 -.70488133645092E+01 0.49020228816813E+01
 h    86    1 0.70488133645092E+01 -.27117361466177E+00 0.49020228816813E+01
 h    87    1 -.70488133645092E+01 0.27117361466177E+00 0.49020228816813E+01
 h    88    1 0.50505643333112E+01 -.17858631530734E+01 0.11885358916348E+02
 h    89    1 -.17858631530734E+01 -.50505643333112E+01 -.11885358916348E+02
 h    90    1 0.17858631530734E+01 0.50505643333112E+01 -.11885358916348E+02
 h    91    1 -.51734560094700E-02 0.29896111203068E+01 0.13841958365135E+02
 h    92    1 0.51734560094700E-02 -.29896111203068E+01 0.13841958365135E+02
 h    93    1 0.29896111203068E+01 -.51734560094700E-02 0.13841958365135E+02
 h    94    1 -.51734560094700E-02 -.29896111203068E+01 -.13841958365135E+02
 h    95    1 -.29896111203068E+01 0.51734560094700E-02 0.13841958365135E+02
 h    96    1 0.51734560094700E-02 0.29896111203068E+01 -.13841958365135E+02
 h    97    1 -.50505643333112E+01 0.17858631530734E+01 0.11885358916348E+02
 h    98    1 0.17858631530734E+01 -.50505643333112E+01 0.11885358916348E+02
 h    99    1 -.50505643333112E+01 -.17858631530734E+01 -.11885358916348E+02
 h   100    1 -.17858631530734E+01 0.50505643333112E+01 0.11885358916348E+02
 h   101    1 0.50505643333112E+01 0.17858631530734E+01 -.11885358916348E+02
 h   102    1 -.60795871162693E+01 -.11192709193529E+01 0.13193367308077E+02
 h   103    1 0.60795871162693E+01 0.11192709193529E+01 0.13193367308077E+02
 h   104    1 -.11192709193529E+01 -.60795871162693E+01 0.13193367308077E+02
 h   105    1 -.60795871162693E+01 0.11192709193529E+01 -.13193367308077E+02
 h   106    1 0.11192709193529E+01 0.60795871162693E+01 0.13193367308077E+02
 h   107    1 0.60795871162693E+01 -.11192709193529E+01 -.13193367308077E+02
[FREQ]
 -.19990000000000E+02
 -.19810000000000E+02
 0.00000000000000E+00
 0.00000000000000E+00
 0.00000000000000E+00
 0.00000000000000E+00
 0.00000000000000E+00
 0.00000000000000E+00
 0.14870000000000E+02
 0.14870000000000E+02
 0.24620000000000E+02
 0.32800000000000E+02
 0.32800000000000E+02
 0.54150000000000E+02
 0.69670000000000E+02
 0.69670000000000E+02
 0.84320000000000E+02
 0.89880000000000E+02
 0.89880000000000E+02
 0.95110000000000E+02
 0.10536000000000E+03
 0.10556000000000E+03
 0.10617000000000E+03
 0.10639000000000E+03
 0.10639000000000E+03
 0.11108000000000E+03
 0.11108000000000E+03
 0.11498000000000E+03
 0.11510000000000E+03
 0.11510000000000E+03
 0.12090000000000E+03
 0.12249000000000E+03
 0.12339000000000E+03
 0.12878000000000E+03
 0.13454000000000E+03
 0.13654000000000E+03
 0.13654000000000E+03
 0.14098000000000E+03
 0.14098000000000E+03
 0.14197000000000E+03
 0.14480000000000E+03
 0.14987000000000E+03
 0.15041000000000E+03
 0.15310000000000E+03
 0.15310000000000E+03
 0.15848000000000E+03
 0.15989000000000E+03
 0.16052000000000E+03
 0.16052000000000E+03
 0.16112000000000E+03
 0.16433000000000E+03
 0.16791000000000E+03
 0.17176000000000E+03
 0.17417000000000E+03
 0.17417000000000E+03
 0.17482000000000E+03
 0.17613000000000E+03
 0.17908000000000E+03
 0.17908000000000E+03
 0.18184000000000E+03
 0.18184000000000E+03
 0.20204000000000E+03
 0.20377000000000E+03
 0.21962000000000E+03
 0.21962000000000E+03
 0.22535000000000E+03
 0.22535000000000E+03
 0.23434000000000E+03
 0.25625000000000E+03
 0.26594000000000E+03
 0.26595000000000E+03
 0.26864000000000E+03
 0.26864000000000E+03
 0.27031000000000E+03
 0.27031000000000E+03
 0.27233000000000E+03
 0.27242000000000E+03
 0.27421000000000E+03
 0.27421000000000E+03
 0.27876000000000E+03
 0.28023000000000E+03
 0.28288000000000E+03
 0.28289000000000E+03
 0.28334000000000E+03
 0.28334000000000E+03
 0.28449000000000E+03
 0.28982000000000E+03
 0.31637000000000E+03
 0.31637000000000E+03
 0.36765000000000E+03
 0.36765000000000E+03
 0.37423000000000E+03
 0.37423000000000E+03
 0.37676000000000E+03
 0.37732000000000E+03
 0.37968000000000E+03
 0.38038000000000E+03
 0.41569000000000E+03
 0.43789000000000E+03
 0.44395000000000E+03
 0.44395000000000E+03
 0.54513000000000E+03
 0.54516000000000E+03
 0.54726000000000E+03
 0.54726000000000E+03
 0.54743000000000E+03
 0.54743000000000E+03
 0.54749000000000E+03
 0.54752000000000E+03
 0.54778000000000E+03
 0.54795000000000E+03
 0.54825000000000E+03
 0.54825000000000E+03
 0.60204000000000E+03
 0.60204000000000E+03
 0.60364000000000E+03
 0.60389000000000E+03
 0.62399000000000E+03
 0.62403000000000E+03
 0.62555000000000E+03
 0.62555000000000E+03
 0.63294000000000E+03
 0.63294000000000E+03
 0.63636000000000E+03
 0.63644000000000E+03
 0.81245000000000E+03
 0.81245000000000E+03
 0.81401000000000E+03
 0.81405000000000E+03
 0.81419000000000E+03
 0.81423000000000E+03
 0.81458000000000E+03
 0.81458000000000E+03
 0.95155000000000E+03
 0.95155000000000E+03
 0.95525000000000E+03
 0.95533000000000E+03
 0.95706000000000E+03
 0.95759000000000E+03
 0.95843000000000E+03
 0.95843000000000E+03
 0.10295500000000E+04
 0.10295500000000E+04
 0.10300100000000E+04
 0.10300900000000E+04
 0.10301400000000E+04
 0.10301400000000E+04
 0.10301800000000E+04
 0.10303500000000E+04
 0.10378600000000E+04
 0.10378600000000E+04
 0.10379100000000E+04
 0.10382500000000E+04
 0.10418800000000E+04
 0.10418800000000E+04
 0.10419700000000E+04
 0.10420000000000E+04
 0.10438800000000E+04
 0.10438800000000E+04
 0.10445500000000E+04
 0.10445800000000E+04
 0.10729400000000E+04
 0.10729800000000E+04
 0.10751600000000E+04
 0.10751600000000E+04
 0.10762300000000E+04
 0.10762300000000E+04
 0.10784300000000E+04
 0.10784500000000E+04
 0.11129000000000E+04
 0.11130100000000E+04
 0.11150500000000E+04
 0.11150500000000E+04
 0.11786300000000E+04
 0.11786700000000E+04
 0.11825200000000E+04
 0.11825200000000E+04
 0.11829300000000E+04
 0.11829300000000E+04
 0.11843800000000E+04
 0.11845000000000E+04
 0.13917000000000E+04
 0.13917300000000E+04
 0.13942000000000E+04
 0.13942000000000E+04
 0.13949500000000E+04
 0.13949500000000E+04
 0.13949600000000E+04
 0.13954100000000E+04
 0.13966600000000E+04
 0.13966600000000E+04
 0.13986600000000E+04
 0.13987100000000E+04
 0.14012100000000E+04
 0.14012100000000E+04
 0.14013300000000E+04
 0.14020600000000E+04
 0.14025500000000E+04
 0.14025500000000E+04
 0.14081700000000E+04
 0.14082700000000E+04
 0.14306700000000E+04
 0.14306800000000E+04
 0.14320900000000E+04
 0.14320900000000E+04
 0.14376200000000E+04
 0.14376200000000E+04
 0.14413500000000E+04
 0.14415500000000E+04
 0.14553600000000E+04
 0.14553700000000E+04
 0.14556700000000E+04
 0.14556700000000E+04
 0.14570300000000E+04
 0.14573600000000E+04
 0.14579000000000E+04
 0.14580200000000E+04
 0.14592400000000E+04
 0.14592400000000E+04
 0.14610500000000E+04
 0.14610500000000E+04
 0.14636800000000E+04
 0.14637400000000E+04
 0.14644000000000E+04
 0.14644000000000E+04
 0.14689900000000E+04
 0.14690300000000E+04
 0.14690700000000E+04
 0.14693100000000E+04
 0.14693100000000E+04
 0.14696800000000E+04
 0.14727200000000E+04
 0.14727200000000E+04
 0.14752100000000E+04
 0.14752600000000E+04
 0.14765300000000E+04
 0.14765300000000E+04
 0.14816400000000E+04
 0.14816400000000E+04
 0.14817000000000E+04
 0.14825000000000E+04
 0.14868600000000E+04
 0.14868600000000E+04
 0.14906700000000E+04
 0.14911900000000E+04
 0.14929600000000E+04
 0.14931700000000E+04
 0.14969000000000E+04
 0.14969000000000E+04
 0.14988000000000E+04
 0.14988000000000E+04
 0.15070700000000E+04
 0.15071000000000E+04
 0.15273500000000E+04
 0.15274500000000E+04
 0.15278600000000E+04
 0.15278600000000E+04
 0.15315200000000E+04
 0.15315200000000E+04
 0.15329600000000E+04
 0.15330300000000E+04
 0.29939800000000E+04
 0.29940800000000E+04
 0.29940900000000E+04
 0.29940900000000E+04
 0.29942300000000E+04
 0.29942300000000E+04
 0.29942700000000E+04
 0.29943200000000E+04
 0.29947800000000E+04
 0.29947900000000E+04
 0.29948600000000E+04
 0.29948600000000E+04
 0.29949400000000E+04
 0.29950700000000E+04
 0.29952500000000E+04
 0.29952500000000E+04
 0.29969100000000E+04
 0.29969100000000E+04
 0.29977400000000E+04
 0.29988600000000E+04
 0.30704800000000E+04
 0.30704800000000E+04
 0.30710900000000E+04
 0.30710900000000E+04
 0.30749300000000E+04
 0.30749400000000E+04
 0.30750600000000E+04
 0.30750600000000E+04
 0.30751500000000E+04
 0.30751800000000E+04
 0.30753500000000E+04
 0.30753500000000E+04
 0.30754000000000E+04
 0.30754000000000E+04
 0.30760100000000E+04
 0.30760300000000E+04
 0.30916000000000E+04
 0.30916000000000E+04
 0.30917800000000E+04
 0.30919000000000E+04
 0.31187400000000E+04
 0.31187400000000E+04
 0.31200600000000E+04
 0.31200600000000E+04
 0.31201700000000E+04
 0.31201700000000E+04
 0.31205400000000E+04
 0.31205700000000E+04
 0.31207000000000E+04
 0.31207400000000E+04
 0.31209400000000E+04
 0.31209400000000E+04
 0.31242700000000E+04
 0.31242700000000E+04
 0.31266300000000E+04
 0.31266500000000E+04
 0.31360600000000E+04
 0.31361700000000E+04
 0.31361900000000E+04
 0.31361900000000E+04
[INT]
 0.00000000000000E+00
 0.00000000000000E+00
 0.00000000000000E+00
 0.00000000000000E+00
 0.00000000000000E+00
 0.00000000000000E+00
 0.00000000000000E+00
 0.00000000000000E+00
 0.95640000000000E-01
 0.95640000000000E-01
 0.00000000000000E+00
 0.66286000000000E+00
 0.66286000000000E+00
 0.00000000000000E+00
 0.69000000000000E-03
 0.69000000000000E-03
 0.00000000000000E+00
 0.50407000000000E+00
 0.50407000000000E+00
 0.31932000000000E+01
 0.00000000000000E+00
 0.00000000000000E+00
 0.00000000000000E+00
 0.46000000000000E-02
 0.46000000000000E-02
 0.33137000000000E+00
 0.33137000000000E+00
 0.61184000000000E+00
 0.10238700000000E+01
 0.10238700000000E+01
 0.00000000000000E+00
 0.00000000000000E+00
 0.13413200000000E+02
 0.00000000000000E+00
 0.00000000000000E+00
 0.63100000000000E-02
 0.63100000000000E-02
 0.40580000000000E-01
 0.40580000000000E-01
 0.00000000000000E+00
 0.13728200000000E+01
 0.00000000000000E+00
 0.00000000000000E+00
 0.50350000000000E-01
 0.50350000000000E-01
 0.00000000000000E+00
 0.00000000000000E+00
 0.15400000000000E-02
 0.15400000000000E-02
 0.00000000000000E+00
 0.00000000000000E+00
 0.00000000000000E+00
 0.10193100000000E+01
 0.48500000000000E-02
 0.48500000000000E-02
 0.84025000000000E+01
 0.00000000000000E+00
 0.56690000000000E-01
 0.56690000000000E-01
 0.56590000000000E-01
 0.56590000000000E-01
 0.00000000000000E+00
 0.88215000000000E+01
 0.50461000000000E+00
 0.50461000000000E+00
 0.12109000000000E+00
 0.12109000000000E+00
 0.32471527000000E+03
 0.00000000000000E+00
 0.00000000000000E+00
 0.00000000000000E+00
 0.13420000000000E-01
 0.13420000000000E-01
 0.72042000000000E+00
 0.72042000000000E+00
 0.22496000000000E+00
 0.00000000000000E+00
 0.37721000000000E+00
 0.37721000000000E+00
 0.10866180000000E+02
 0.00000000000000E+00
 0.00000000000000E+00
 0.00000000000000E+00
 0.25297000000000E+00
 0.25297000000000E+00
 0.98267450000000E+02
 0.00000000000000E+00
 0.10385135000000E+03
 0.10385135000000E+03
 0.47000000000000E-01
 0.47000000000000E-01
 0.88514000000000E+00
 0.88514000000000E+00
 0.00000000000000E+00
 0.00000000000000E+00
 0.25240670000000E+02
 0.00000000000000E+00
 0.00000000000000E+00
 0.38986786000000E+03
 0.37150810000000E+02
 0.37150810000000E+02
 0.00000000000000E+00
 0.00000000000000E+00
 0.81100000000000E-01
 0.81100000000000E-01
 0.44300000000000E-02
 0.44300000000000E-02
 0.00000000000000E+00
 0.00000000000000E+00
 0.00000000000000E+00
 0.32328000000000E+00
 0.63580000000000E-01
 0.63580000000000E-01
 0.52891500000000E+01
 0.52891500000000E+01
 0.42809200000000E+01
 0.00000000000000E+00
 0.00000000000000E+00
 0.00000000000000E+00
 0.73245000000000E+00
 0.73245000000000E+00
 0.14550000000000E-01
 0.14550000000000E-01
 0.22436700000000E+01
 0.00000000000000E+00
 0.18981000000000E+00
 0.18981000000000E+00
 0.00000000000000E+00
 0.00000000000000E+00
 0.00000000000000E+00
 0.27379000000000E+00
 0.16744900000000E+01
 0.16744900000000E+01
 0.10086000000000E+00
 0.10086000000000E+00
 0.53542900000000E+01
 0.00000000000000E+00
 0.00000000000000E+00
 0.00000000000000E+00
 0.15000000000000E-03
 0.15000000000000E-03
 0.40128000000000E+00
 0.40128000000000E+00
 0.17270270000000E+02
 0.00000000000000E+00
 0.32905200000000E+02
 0.32905200000000E+02
 0.00000000000000E+00
 0.00000000000000E+00
 0.34056100000000E+01
 0.34056100000000E+01
 0.44791490000000E+02
 0.00000000000000E+00
 0.17774300000000E+01
 0.17774300000000E+01
 0.00000000000000E+00
 0.00000000000000E+00
 0.17831000000000E+00
 0.17831000000000E+00
 0.00000000000000E+00
 0.28567400000000E+01
 0.00000000000000E+00
 0.00000000000000E+00
 0.25915000000000E+01
 0.25915000000000E+01
 0.65553000000000E+00
 0.65553000000000E+00
 0.59972700000000E+01
 0.00000000000000E+00
 0.00000000000000E+00
 0.00000000000000E+00
 0.29600000000000E+00
 0.29600000000000E+00
 0.00000000000000E+00
 0.00000000000000E+00
 0.94370000000000E-01
 0.94370000000000E-01
 0.12940000000000E-01
 0.12940000000000E-01
 0.19037400000000E+01
 0.00000000000000E+00
 0.00000000000000E+00
 0.00000000000000E+00
 0.94121000000000E+00
 0.94121000000000E+00
 0.13816100000000E+01
 0.13816100000000E+01
 0.00000000000000E+00
 0.50500000000000E-02
 0.59322000000000E+00
 0.59322000000000E+00
 0.00000000000000E+00
 0.00000000000000E+00
 0.60823000000000E+00
 0.60823000000000E+00
 0.19568150000000E+02
 0.00000000000000E+00
 0.24472000000000E+01
 0.24472000000000E+01
 0.49086700000000E+01
 0.00000000000000E+00
 0.00000000000000E+00
 0.00000000000000E+00
 0.35052000000000E+00
 0.35052000000000E+00
 0.21692000000000E+00
 0.21692000000000E+00
 0.19429000000000E+01
 0.00000000000000E+00
 0.00000000000000E+00
 0.00000000000000E+00
 0.15735960000000E+02
 0.15735960000000E+02
 0.14894000000000E+00
 0.00000000000000E+00
 0.00000000000000E+00
 0.00000000000000E+00
 0.10373660000000E+02
 0.10373660000000E+02
 0.32951800000000E+01
 0.32951800000000E+01
 0.24150870000000E+02
 0.00000000000000E+00
 0.91267600000000E+01
 0.91267600000000E+01
 0.00000000000000E+00
 0.00000000000000E+00
 0.15794500000000E+01
 0.13274000000000E+01
 0.13274000000000E+01
 0.00000000000000E+00
 0.33700000000000E-02
 0.33700000000000E-02
 0.00000000000000E+00
 0.00000000000000E+00
 0.10005690000000E+02
 0.10005690000000E+02
 0.76150000000000E-01
 0.76150000000000E-01
 0.37552060000000E+02
 0.00000000000000E+00
 0.47424970000000E+02
 0.47424970000000E+02
 0.26225290000000E+02
 0.00000000000000E+00
 0.00000000000000E+00
 0.00000000000000E+00
 0.90130000000000E+00
 0.90130000000000E+00
 0.63010000000000E-01
 0.63010000000000E-01
 0.00000000000000E+00
 0.45914800000000E+01
 0.00000000000000E+00
 0.00000000000000E+00
 0.20461400000000E+01
 0.20461400000000E+01
 0.63623000000000E+00
 0.63623000000000E+00
 0.29374000000000E+00
 0.00000000000000E+00
 0.00000000000000E+00
 0.00000000000000E+00
 0.80616460000000E+02
 0.80616460000000E+02
 0.38178390000000E+02
 0.38178390000000E+02
 0.86011000000000E+00
 0.00000000000000E+00
 0.00000000000000E+00
 0.00000000000000E+00
 0.38380590000000E+02
 0.38380590000000E+02
 0.14548157000000E+03
 0.00000000000000E+00
 0.13606049000000E+03
 0.13606049000000E+03
 0.25563739000000E+03
 0.25563739000000E+03
 0.49537532000000E+03
 0.00000000000000E+00
 0.00000000000000E+00
 0.00000000000000E+00
 0.62855150000000E+02
 0.62855150000000E+02
 0.00000000000000E+00
 0.00000000000000E+00
 0.13543500000000E+02
 0.13543500000000E+02
 0.90893000000000E+01
 0.00000000000000E+00
 0.24294200000000E+01
 0.24294200000000E+01
 0.70460580000000E+02
 0.70460580000000E+02
 0.00000000000000E+00
 0.32630000000000E-01
 0.17664370000000E+02
 0.17664370000000E+02
 0.34138000000000E+02
 0.00000000000000E+00
 0.00000000000000E+00
 0.00000000000000E+00
 0.10189810000000E+02
 0.10189810000000E+02
 0.77231000000000E+00
 0.77231000000000E+00
 0.00000000000000E+00
 0.00000000000000E+00
 0.72357680000000E+02
 0.00000000000000E+00
 0.28700000000000E-02
 0.28700000000000E-02
 0.38149590000000E+02
 0.38149590000000E+02
 0.78056740000000E+02
 0.00000000000000E+00
 0.00000000000000E+00
 0.00000000000000E+00
 0.11015040000000E+02
 0.11015040000000E+02
[FR-COORD]
 mo 0.00000000000000E+00 0.00000000000000E+00 0.00000000000000E+00
 y  0.00000000000000E+00 0.00000000000000E+00 -.66607977103023E+01
 s  0.23559756275147E+01 0.23559756275147E+01 -.26427806803412E+01
 s  -.23559756275147E+01 -.23559756275147E+01 -.26427806803412E+01
 s  0.23559756275147E+01 -.23559756275147E+01 0.26427806803412E+01
 s  -.23559756275147E+01 0.23559756275147E+01 0.26427806803412E+01
 c  0.47136566016794E+01 -.16269455551823E+01 -.76761045566135E+01
 c  0.35850964329073E+01 -.35850964329073E+01 -.62027790993212E+01
 c  0.16269455551823E+01 -.47136566016794E+01 -.76761045566135E+01
 c  0.15673787284405E+01 -.34809923599845E+01 -.10080345169322E+02
 c  0.34809923599845E+01 -.15673787284405E+01 -.10080345169322E+02
 c  -.16269455551823E+01 0.47136566016794E+01 -.76761045566135E+01
 c  -.35850964329073E+01 0.35850964329073E+01 -.62027790993212E+01
 c  -.47136566016794E+01 0.16269455551823E+01 -.76761045566135E+01
 c  -.34809923599845E+01 0.15673787284405E+01 -.10080345169322E+02
 c  -.15673787284405E+01 0.34809923599845E+01 -.10080345169322E+02
 c  0.10893671300944E+00 -.70067007288379E+01 -.69454433166135E+01
 c  0.14488034078092E+00 -.44304674782311E+01 -.12352950788280E+02
 c  0.44788008845833E+01 -.44788008845833E+01 -.36618630166082E+01
 c  0.44304674782311E+01 -.14488034078092E+00 -.12352950788280E+02
 c  0.70067007288379E+01 -.10893671300944E+00 -.69454433166135E+01
 c  -.14488034078092E+00 0.44304674782311E+01 -.12352950788280E+02
 c  -.44788008845833E+01 0.44788008845833E+01 -.36618630166082E+01
 c  -.70067007288379E+01 0.10893671300944E+00 -.69454433166135E+01
 c  -.44304674782311E+01 0.14488034078092E+00 -.12352950788280E+02
 h  0.59502171279618E+01 -.59502171279618E+01 -.38726548419831E+01
 h  0.29309116239199E+01 -.52907916531346E+01 -.25383698289900E+01
 h  -.29309116239199E+01 0.52907916531346E+01 -.25383698289900E+01
 h  -.59502171279618E+01 0.59502171279618E+01 -.38726548419831E+01
 h  0.52907916531346E+01 -.29309116239199E+01 -.25383698289900E+01
 h  -.52907916531346E+01 0.29309116239199E+01 -.25383698289900E+01
 h  0.70624979172092E+01 0.17302691156372E+01 -.79192147432229E+01
 h  0.87676599924996E+01 -.11212793622785E+01 -.74442579109746E+01
 h  0.70488133645092E+01 0.27117361466177E+00 -.49020228816813E+01
 h  -.70624979172092E+01 -.17302691156372E+01 -.79192147432229E+01
 h  -.87676599924996E+01 0.11212793622785E+01 -.74442579109746E+01
 h  -.70488133645092E+01 -.27117361466177E+00 -.49020228816813E+01
 c  -.10893671300944E+00 0.70067007288379E+01 -.69454433166135E+01
 h  -.11212793622785E+01 0.87676599924996E+01 -.74442579109746E+01
 h  0.17302691156372E+01 0.70624979172092E+01 -.79192147432229E+01
 h  0.27117361466177E+00 0.70488133645092E+01 -.49020228816813E+01
 h  0.11212793622785E+01 -.87676599924996E+01 -.74442579109746E+01
 h  -.17302691156372E+01 -.70624979172092E+01 -.79192147432229E+01
 h  0.29896111203068E+01 0.51734560094700E-02 -.13841958365135E+02
 h  -.29896111203068E+01 -.51734560094700E-02 -.13841958365135E+02
 h  -.11192709193529E+01 0.60795871162693E+01 -.13193367308077E+02
 h  0.11192709193529E+01 -.60795871162693E+01 -.13193367308077E+02
 h  -.27117361466177E+00 -.70488133645092E+01 -.49020228816813E+01
 y  0.00000000000000E+00 0.00000000000000E+00 0.66607977103023E+01
 c  0.16269455551823E+01 0.47136566016794E+01 0.76761045566135E+01
 c  -.16269455551823E+01 -.47136566016794E+01 0.76761045566135E+01
 c  0.47136566016794E+01 0.16269455551823E+01 0.76761045566135E+01
 c  -.47136566016794E+01 -.16269455551823E+01 0.76761045566135E+01
 c  0.35850964329073E+01 0.35850964329073E+01 0.62027790993212E+01
 c  -.35850964329073E+01 -.35850964329073E+01 0.62027790993212E+01
 c  0.34809923599845E+01 0.15673787284405E+01 0.10080345169322E+02
 c  -.34809923599845E+01 -.15673787284405E+01 0.10080345169322E+02
 c  0.15673787284405E+01 0.34809923599845E+01 0.10080345169322E+02
 c  -.15673787284405E+01 -.34809923599845E+01 0.10080345169322E+02
 c  0.70067007288379E+01 0.10893671300944E+00 0.69454433166135E+01
 c  -.70067007288379E+01 -.10893671300944E+00 0.69454433166135E+01
 c  0.10893671300944E+00 0.70067007288379E+01 0.69454433166135E+01
 c  -.10893671300944E+00 -.70067007288379E+01 0.69454433166135E+01
 c  0.44304674782311E+01 0.14488034078092E+00 0.12352950788280E+02
 c  -.44304674782311E+01 -.14488034078092E+00 0.12352950788280E+02
 c  0.14488034078092E+00 0.44304674782311E+01 0.12352950788280E+02
 c  -.14488034078092E+00 -.44304674782311E+01 0.12352950788280E+02
 c  0.44788008845833E+01 0.44788008845833E+01 0.36618630166082E+01
 c  -.44788008845833E+01 -.44788008845833E+01 0.36618630166082E+01
 h  0.59502171279618E+01 0.59502171279618E+01 0.38726548419831E+01
 h  -.59502171279618E+01 -.59502171279618E+01 0.38726548419831E+01
 h  0.52907916531346E+01 0.29309116239199E+01 0.25383698289900E+01
 h  -.52907916531346E+01 -.29309116239199E+01 0.25383698289900E+01
 h  0.29309116239199E+01 0.52907916531346E+01 0.25383698289900E+01
 h  -.29309116239199E+01 -.52907916531346E+01 0.25383698289900E+01
 h  -.17302691156372E+01 0.70624979172092E+01 0.79192147432229E+01
 h  0.17302691156372E+01 -.70624979172092E+01 0.79192147432229E+01
 h  0.70624979172092E+01 -.17302691156372E+01 0.79192147432229E+01
 h  -.70624979172092E+01 0.17302691156372E+01 0.79192147432229E+01
 h  0.11212793622785E+01 0.87676599924996E+01 0.74442579109746E+01
 h  -.11212793622785E+01 -.87676599924996E+01 0.74442579109746E+01
 h  0.87676599924996E+01 0.11212793622785E+01 0.74442579109746E+01
 h  -.87676599924996E+01 -.11212793622785E+01 0.74442579109746E+01
 h  -.27117361466177E+00 0.70488133645092E+01 0.49020228816813E+01
 h  0.27117361466177E+00 -.70488133645092E+01 0.49020228816813E+01
 h  0.70488133645092E+01 -.27117361466177E+00 0.49020228816813E+01
 h  -.70488133645092E+01 0.27117361466177E+00 0.49020228816813E+01
 h  0.50505643333112E+01 -.17858631530734E+01 0.11885358916348E+02
 h  -.17858631530734E+01 -.50505643333112E+01 -.11885358916348E+02
 h  0.17858631530734E+01 0.50505643333112E+01 -.11885358916348E+02
 h  -.51734560094700E-02 0.29896111203068E+01 0.13841958365135E+02
 h  0.51734560094700E-02 -.29896111203068E+01 0.13841958365135E+02
 h  0.29896111203068E+01 -.51734560094700E-02 0.13841958365135E+02
 h  -.51734560094700E-02 -.29896111203068E+01 -.13841958365135E+02
 h  -.29896111203068E+01 0.51734560094700E-02 0.13841958365135E+02
 h  0.51734560094700E-02 0.29896111203068E+01 -.13841958365135E+02
 h  -.50505643333112E+01 0.17858631530734E+01 0.11885358916348E+02
 h  0.17858631530734E+01 -.50505643333112E+01 0.11885358916348E+02
 h  -.50505643333112E+01 -.17858631530734E+01 -.11885358916348E+02
 h  -.17858631530734E+01 0.50505643333112E+01 0.11885358916348E+02
 h  0.50505643333112E+01 0.17858631530734E+01 -.11885358916348E+02
 h  -.60795871162693E+01 -.11192709193529E+01 0.13193367308077E+02
 h  0.60795871162693E+01 0.11192709193529E+01 0.13193367308077E+02
 h  -.11192709193529E+01 -.60795871162693E+01 0.13193367308077E+02
 h  -.60795871162693E+01 0.11192709193529E+01 -.13193367308077E+02
 h  0.11192709193529E+01 0.60795871162693E+01 0.13193367308077E+02
 h  0.60795871162693E+01 -.11192709193529E+01 -.13193367308077E+02
[FR-NORM-COORD]
 vibration    1
 0.00000000000000E+00 0.00000000000000E+00 0.00000000000000E+00
 0.00000000000000E+00 0.00000000000000E+00 0.00000000000000E+00
 -.78287053000000E-02 0.78287053000000E-02 0.00000000000000E+00
 0.78287053000000E-02 -.78287053000000E-02 0.00000000000000E+00